LAMMPS data file via write_data, version 11 Aug 2017, timestep = 1000

25433 atoms
2 atom types

0.0000000000000000e+00 1.6098998685431201e+02 xlo xhi
0.0000000000000000e+00 1.3729272209367801e+02 ylo yhi
0.0000000000000000e+00 1.3392601342096000e+01 zlo zhi

Masses

1 12.0107
2 55.845

Atoms # atomic

1 2 1.0823776554695010e+00 2.1916672845590317e+00 5.5953111081171369e-01 0 0 0
2 2 2.7883039573800672e+00 2.2088405657867858e+00 4.2411249467163694e+00 0 0 0
3 2 6.3630735101457858e-01 2.2109696680857054e+00 3.0116487963696636e+00 0 0 0
4 2 3.2246658839977598e+00 2.1914084071070867e+00 1.8190843977601161e+00 0 0 0
1276 2 1.9207035989241328e+00 1.8220141804540682e-01 2.4935548389755531e+00 0 0 0
25433 1 1.9252742098716800e+00 1.2029012866149065e+00 1.2465977166573341e+01 0 0 -1
5 2 5.7907372754404687e+00 2.2069513494676078e+00 5.8892026673291964e-01 0 0 0
6 2 7.5274435982972125e+00 2.2029304773528926e+00 4.2502054798159401e+00 0 0 0
7 2 5.3773076516652489e+00 2.2046948067764531e+00 3.0317712251993192e+00 0 0 0
8 2 7.9523015311096836e+00 2.2029691709786694e+00 1.8113352569480921e+00 0 0 0
1259 2 6.6883188786150836e+00 1.8332593193077876e-01 2.4467288073946443e+00 0 0 0
1277 2 4.5715852808112887e+00 1.8004603766461905e-01 1.2505176273785752e+00 0 0 0
1279 2 4.0898908114276171e+00 1.8486460835768093e-01 3.6647702155857425e+00 0 0 0
9 2 1.0535634203774059e+01 2.1911193584600359e+00 5.9461299371895615e-01 0 0 0
11 2 1.0107324358373578e+01 2.1941236037303034e+00 3.0303517659489212e+00 0 0 0
1251 2 1.1399489171334157e+01 1.6777306739673686e-01 2.4356032526597748e+00 0 0 0
1253 2 8.8258922534851187e+00 1.7917572472806056e-01 3.6568748621967502e+00 0 0 0
1255 2 9.2487074717444386e+00 1.7760882625940203e-01 1.2178976124509737e+00 0 0 0
10 2 1.2260670828374209e+01 2.1822123875056940e+00 4.2477123020861196e+00 0 0 0
12 2 1.2690041650818438e+01 2.1792226329767872e+00 1.8120541333468647e+00 0 0 0
13 2 1.5273826523713028e+01 2.1610047839064541e+00 5.9392883052559209e-01 0 0 0
14 2 1.4843544462736482e+01 2.1645130165646744e+00 3.0290912286663554e+00 0 0 0
1168 2 1.3550513889284604e+01 1.5463688316814447e-01 3.6539919512499019e+00 0 0 0
1248 2 1.3979475725688943e+01 1.5153920358118048e-01 1.2187370013465340e+00 0 0 0
15 2 1.6996605030844201e+01 2.1475947264845487e+00 4.2459891403354488e+00 0 0 0
16 2 1.7426947691748399e+01 2.1439227381365562e+00 1.8107985267365210e+00 0 0 0
17 2 2.0010345578481687e+01 2.1212315922237730e+00 5.9258808739198587e-01 0 0 0
18 2 1.9579809467127138e+01 2.1251880701147616e+00 3.0276956389488685e+00 0 0 0
823 2 1.8283020929276759e+01 1.1752682539583933e-01 3.6568259288138605e+00 0 0 0
826 2 1.8713154588535353e+01 1.1371041224922802e-01 1.2220940641971294e+00 0 0 0
954 2 1.6131367774342543e+01 1.3551130378032861e-01 2.4377589933744015e+00 0 0 0
1232 2 1.6561451535290200e+01 1.3190746882520535e-01 3.0448172586524163e-03 0 0 0
19 2 2.1732475628530818e+01 2.1053278576462606e+00 4.2446279128121978e+00 0 0 0
20 2 2.2162969221439191e+01 2.1012495879153250e+00 1.8095072144402151e+00 0 0 0
807 2 2.3016224318545639e+01 7.3772284686542816e-02 3.6598969990047125e+00 0 0 0
809 2 2.3446529514991120e+01 6.9625265857941390e-02 1.2251303309276138e+00 0 0 0
816 2 2.1295057503375844e+01 9.0105825486820432e-02 6.3744546204623958e-03 0 0 0
820 2 2.0864721090764103e+01 9.4164738513475302e-02 2.4410777764153408e+00 0 0 0
21 2 2.4315465221251056e+01 2.0806465101679730e+00 3.0264608559183821e+00 0 0 0
22 2 2.4745972718074547e+01 2.0764790795615453e+00 5.9134686214593657e-01 0 0 0
23 2 2.6467863526818586e+01 2.0597925254658200e+00 4.2434237679968376e+00 0 0 0
24 2 2.6898342394418869e+01 2.0556163514172177e+00 1.8083018453475150e+00 0 0 0
411 2 2.7749627083599602e+01 2.7873016741154076e-02 3.6618932371185111e+00 0 0 0
801 2 2.6028376101022282e+01 4.4586868238992938e-02 8.8139545801892063e-03 0 0 0
805 2 2.5598038859321107e+01 4.8775755689099594e-02 2.4436502339948087e+00 0 0 0
25 2 2.9481126082530377e+01 2.0306744272286954e+00 5.9011195331184696e-01 0 0 0
26 2 3.1202945606591467e+01 2.0142267305139279e+00 4.2421567121584074e+00 0 0 0
27 2 2.9050658906366415e+01 2.0348117745293992e+00 3.0252439519101615e+00 0 0 0
28 2 3.1633405349276892e+01 2.0101446623894899e+00 1.8070162953282884e+00 0 0 0
415 2 2.8179969503583518e+01 2.3706125812015352e-02 1.2269934821412707e+00 0 0 0
1281 2 3.0331681596472070e+01 3.0109742208939369e-03 2.4448889794702611e+00 0 0 0
29 2 1.0576275914825846e+00 6.2590359664259800e+00 5.9212629441763154e-01 0 0 0
30 2 1.9296143780687440e+00 4.2236946977880319e+00 2.4023660402580505e+00 0 0 0
32 2 2.7883382912102275e+00 6.2513125418734825e+00 4.2367246508661029e+00 0 0 0
33 2 6.3476527110446324e-01 6.2474515968270783e+00 3.0269918030937575e+00 0 0 0
35 2 3.2155090130706476e+00 6.2505522942992986e+00 1.8006093394011304e+00 0 0 0
31 2 4.4979063990513293e+00 4.2217225557145861e+00 1.1914190360584560e+00 0 0 0
36 2 4.0793670779505709e+00 4.2275450054206534e+00 3.6268545054279877e+00 0 0 0
37 2 5.7987313448020430e+00 6.2437087194646299e+00 5.8249340132858896e-01 0 0 0
38 2 6.6581860192116329e+00 4.2242459347656354e+00 2.4107453033956774e+00 0 0 0
39 2 7.5243968043978890e+00 6.2422215084930954e+00 4.2306149572076635e+00 0 0 0
40 2 5.3694265090258009e+00 6.2472224238995713e+00 3.0158666621920482e+00 0 0 0
42 2 7.9543148402395332e+00 6.2393761399282992e+00 1.7953514937803638e+00 0 0 0
43 2 9.2450692264373018e+00 4.2158117313426837e+00 1.1931383043111137e+00 0 0 0
44 2 8.8145835348440773e+00 4.2181106776664343e+00 3.6284075026963101e+00 0 0 0
45 2 1.0540842071871189e+01 6.2278062121958904e+00 5.7252795619948338e-01 0 0 0
46 2 1.1400019729038554e+01 4.2054788050499186e+00 2.4084806843548376e+00 0 0 0
48 2 1.0109620872440617e+01 6.2305872466985255e+00 3.0082988518103329e+00 0 0 0
47 2 1.2264818174482469e+01 6.2184506505440398e+00 4.2206894439140896e+00 0 0 0
50 2 1.3985122201361650e+01 4.1887483334150506e+00 1.1876541607180220e+00 0 0 0
51 2 1.2695917428170095e+01 6.2154590751589751e+00 1.7845899117392787e+00 0 0 0
52 2 1.3554539619499620e+01 4.1920816522852213e+00 3.6233042571831424e+00 0 0 0
53 2 1.5282065171881484e+01 6.1969593696598082e+00 5.6045477187568082e-01 0 0 0
55 2 1.4851074694043158e+01 6.2004743310094570e+00 2.9965690998132795e+00 0 0 0
54 2 1.6139451160939768e+01 4.1727789152684336e+00 2.4022190656702582e+00 0 0 0
57 2 1.8724279542700241e+01 4.1510656162240140e+00 1.1812668144865988e+00 0 0 0
58 2 1.7006198670824787e+01 6.1834048121454135e+00 4.2086399699166659e+00 0 0 0
59 2 1.7437182419694103e+01 6.1797229760604555e+00 1.7725537547709778e+00 0 0 0
60 2 1.8293542847588064e+01 4.1549025253616199e+00 3.6168391935127593e+00 0 0 0
61 2 2.0023089267551526e+01 6.1570367131924266e+00 5.4900479669165370e-01 0 0 0
62 2 1.9592141152982467e+01 6.1609782821826125e+00 2.9849841147396727e+00 0 0 0
64 2 2.0878112460902752e+01 4.1316985015330250e+00 2.3960881775277261e+00 0 0 0
65 2 2.3462406049241007e+01 4.1073796969258227e+00 1.1757010580997294e+00 0 0 0
66 2 2.1746851878777285e+01 6.1412380399104736e+00 4.1978693655561985e+00 0 0 0
67 2 2.2177746018662106e+01 6.1371960290697949e+00 1.7619885055126250e+00 0 0 0
68 2 2.3031712648634972e+01 4.1114955351933098e+00 3.6111646636699501e+00 0 0 0
69 2 2.4332079723551693e+01 6.1168385262504863e+00 2.9755166220559679e+00 0 0 0
70 2 2.4762903736348079e+01 6.1127289720808742e+00 5.3977189724197161e-01 0 0 0
71 2 2.5615719166459677e+01 4.0867125582951589e+00 2.3911046393555728e+00 0 0 0
73 2 2.6486063386624796e+01 6.0962978666876619e+00 4.1896043645117436e+00 0 0 0
75 2 2.6916816744836542e+01 6.0921885458202460e+00 1.7539682888636583e+00 0 0 0
76 2 2.7768814530857632e+01 4.0659713232931685e+00 3.6067781326547110e+00 0 0 0
72 2 2.8199414660665806e+01 4.0618342396528710e+00 1.1714256429535936e+00 0 0 0
77 2 2.9501070112255903e+01 6.0676647476141454e+00 5.3317253658747166e-01 0 0 0
78 2 3.0352279074985454e+01 4.0412693779019611e+00 2.3873827611969523e+00 0 0 0
79 2 3.1223662344616923e+01 6.0514939008541981e+00 4.1838779777511634e+00 0 0 0
80 2 2.9070391162521737e+01 6.0717319926867344e+00 2.9686893815399134e+00 0 0 0
82 2 3.1654285184791974e+01 6.0474794364479827e+00 1.7484463757013293e+00 0 0 0
84 2 1.9240830535213593e+00 8.2715185857983293e+00 2.4188156560768732e+00 0 0 0
86 2 2.7871789545946659e+00 1.0291221146892541e+01 4.2434524164045229e+00 0 0 0
87 2 6.3076897479940730e-01 1.0289868956710508e+01 3.0394499625241056e+00 0 0 0
89 2 3.2178212047896229e+00 1.0291020525995981e+01 1.8062222699757173e+00 0 0 0
905 2 1.0613384675062028e+00 1.0293321097062652e+01 6.0206864145141681e-01 0 0 0
85 2 4.5101346750334246e+00 8.2697200286140120e+00 1.1906451086819994e+00 0 0 0
90 2 4.0797067527611803e+00 8.2706875811749168e+00 3.6267183765253659e+00 0 0 0
91 2 6.6644959221450781e+00 8.2636676838709455e+00 2.4010610267365768e+00 0 0 0
92 2 7.5296311778169134e+00 1.0280969043423902e+01 4.2176493707332892e+00 0 0 0
93 2 5.3737469944028309e+00 1.0287502903626175e+01 3.0114317270768534e+00 0 0 0
95 2 7.9603031566402667e+00 1.0277910521483008e+01 1.7809648210416578e+00 0 0 0
913 2 5.8050883284500614e+00 1.0286271066297116e+01 5.7453114979055331e-01 0 0 0
96 2 9.2506744920411172e+00 8.2528317705656633e+00 1.1751471087477297e+00 0 0 0
97 2 8.8197336559672692e+00 8.2557498535094442e+00 3.6112472368452182e+00 0 0 0
98 2 1.0547560740297207e+01 1.0264274437115914e+01 5.5035049662018642e-01 0 0 0
99 2 1.1406195048503553e+01 8.2414472299768295e+00 2.3845366546819386e+00 0 0 0
101 2 1.0116256003013907e+01 1.0267295330273903e+01 2.9873403419682161e+00 0 0 0
100 2 1.2272578927372358e+01 1.0253716027280666e+01 4.1937064236670931e+00 0 0 0
103 2 1.3993309617368784e+01 8.2239820587144425e+00 1.1571412695089001e+00 0 0 0
104 2 1.2703927256403786e+01 1.0250438501632757e+01 1.7564974920621448e+00 0 0 0
105 2 1.3562012556203806e+01 8.2272887983266010e+00 3.5937881376182390e+00 0 0 0
106 2 1.5292099834967368e+01 1.0230769033592425e+01 5.2566936582954782e-01 0 0 0
108 2 1.4860658357748479e+01 1.0234340753045082e+01 2.9628535274146768e+00 0 0 0
107 2 1.6149274235479876e+01 8.2074009500971421e+00 2.3664633646311111e+00 0 0 0
110 2 1.8736407187256599e+01 8.1853530195497441e+00 1.1397121877638381e+00 0 0 0
111 2 1.7017532655607702e+01 1.0216518219594457e+01 4.1696852394968307e+00 0 0 0
112 2 1.7448948835312979e+01 1.0212779511942491e+01 1.7326165991260636e+00 0 0 0
113 2 1.8305233323602650e+01 8.1891923969651703e+00 3.5762156064703157e+00 0 0 0
114 2 2.0036967194157050e+01 1.0189757351677583e+01 5.0357052449508011e-01 0 0 0
115 2 1.9605662088038102e+01 1.0193695167831409e+01 2.9404144243322152e+00 0 0 0
117 2 2.0892124178331851e+01 8.1659403541009965e+00 2.3502476958502370e+00 0 0 0
118 2 2.3478496208654175e+01 8.1418772814049909e+00 1.1254329105908110e+00 0 0 0
119 2 2.1762023165541535e+01 1.0173991397734463e+01 4.1492647037140289e+00 0 0 0
120 2 2.2193240273922161e+01 1.0170008963599784e+01 1.7126491282586596e+00 0 0 0
121 2 2.3047483565384294e+01 8.1459283234210194e+00 3.5615851726441403e+00 0 0 0
122 2 2.4348988205771896e+01 1.0150045514725475e+01 2.9228951202643763e+00 0 0 0
123 2 2.4780062232201502e+01 1.0146043471961082e+01 4.8656279505741762e-01 0 0 0
124 2 2.5633324888969977e+01 8.1216112614327862e+00 2.3377982879603967e+00 0 0 0
126 2 2.6504153179092960e+01 1.0130106569849502e+01 4.1342995788298653e+00 0 0 0
128 2 2.6935112653374194e+01 1.0126134708880494e+01 1.6981921359048064e+00 0 0 0
129 2 2.7787681895812320e+01 8.1013772249597800e+00 3.5509968166724724e+00 0 0 0
125 2 2.8218496419959465e+01 8.0973478538333108e+00 1.1152106634805228e+00 0 0 0
130 2 2.9520423494027877e+01 1.0102489119882113e+01 4.7501297690755945e-01 0 0 0
131 2 3.0372324512796386e+01 8.0773404459710427e+00 2.3293135304354142e+00 0 0 0
132 2 3.1243562015045502e+01 1.0086923109033961e+01 4.1245018620872882e+00 0 0 0
133 2 2.9089592840089416e+01 1.0106406927697266e+01 2.9108795544666490e+00 0 0 0
135 2 3.1674300339069923e+01 1.0083057473936579e+01 1.6888064541154386e+00 0 0 0
137 2 1.9243195622593134e+00 1.2310355244199238e+01 2.4257829908450605e+00 0 0 0
139 2 2.7873499995145514e+00 1.4329373077016779e+01 4.2466126561043662e+00 0 0 0
140 2 6.2980718395323887e-01 1.4327997696916336e+01 3.0493365818680642e+00 0 0 0
142 2 3.2187235470762459e+00 1.4329148613802662e+01 1.8077550520978256e+00 0 0 0
955 2 1.0612391193785498e+00 1.4329627376385748e+01 6.1037768501419487e-01 0 0 0
138 2 4.5123899632525344e+00 1.2308489621817900e+01 1.1889833005985280e+00 0 0 0
143 2 4.0811245724804426e+00 1.2309204312238363e+01 3.6269293657526402e+00 0 0 0
144 2 6.6689429362188450e+00 1.2302319222514470e+01 2.3908951869327968e+00 0 0 0
145 2 7.5339370275134989e+00 1.4317584977652482e+01 4.2034605943751275e+00 0 0 0
146 2 5.3761884279264081e+00 1.4325232736505749e+01 3.0053932861697326e+00 0 0 0
148 2 7.9653178925947801e+00 1.4314900489706126e+01 1.7648075777004582e+00 0 0 0
963 2 5.8077437953812110e+00 1.4323972321670487e+01 5.6662270051272057e-01 0 0 0
149 2 9.2569370040041203e+00 1.2289898681186058e+01 1.1557198334769725e+00 0 0 0
150 2 8.8257136623593855e+00 1.2292912811890591e+01 3.5933978349291946e+00 0 0 0
151 2 1.1414001551996988e+01 1.2276636030254778e+01 2.3584968769977448e+00 0 0 0
153 2 1.0123313319508096e+01 1.4302517659024732e+01 2.9634954510288223e+00 0 0 0
971 2 1.0554915662828620e+01 1.4299283517643287e+01 5.2493498997735788e-01 0 0 0
152 2 1.2281689483142635e+01 1.4287112538293762e+01 4.1627926215426001e+00 0 0 0
155 2 1.4003046981079130e+01 1.2257289362836156e+01 1.1237971428731366e+00 0 0 0
156 2 1.2713325107928732e+01 1.4283462058496445e+01 1.7242649476507115e+00 0 0 0
157 2 1.3571479065761993e+01 1.2260858290499327e+01 3.5616055276429468e+00 0 0 0
158 2 1.5303782401275676e+01 1.4261898665159507e+01 4.8613500109500041e-01 0 0 0
160 2 1.4872012717408492e+01 1.4265720754891513e+01 2.9244597433126618e+00 0 0 0
159 2 1.6160789404054420e+01 1.2239501099955485e+01 2.3275649693895866e+00 0 0 0
162 2 1.8750000747488642e+01 1.2216704463193610e+01 1.0949282149297954e+00 0 0 0
163 2 1.7030669910969930e+01 1.4246795183034314e+01 4.1258803494230465e+00 0 0 0
164 2 1.7462392951294589e+01 1.4242903671926374e+01 1.6878257388774032e+00 0 0 0
165 2 1.8318470471426849e+01 1.2220591553910499e+01 3.5323445233580997e+00 0 0 0
166 2 2.0052174930596841e+01 1.4219543598468839e+01 4.5354551600794274e-01 0 0 0
167 2 1.9620591626762849e+01 1.4223464935973261e+01 2.8911778600084554e+00 0 0 0
169 2 2.0907236591780418e+01 1.2197177195428884e+01 2.3012937701516134e+00 0 0 0
170 2 2.3495138043921557e+01 1.2173553141561976e+01 1.0723817808509801e+00 0 0 0
171 2 2.1778128678286809e+01 1.4203983563054720e+01 4.0963812443099386e+00 0 0 0
172 2 2.2209554889002259e+01 1.4200109274625136e+01 1.6591289916176246e+00 0 0 0
173 2 2.3063887546075563e+01 1.2177489971038767e+01 3.5091508309458819e+00 0 0 0
174 2 2.4366124391987189e+01 1.4180867511767262e+01 2.8665851526459449e+00 0 0 0
175 2 2.4797339319076482e+01 1.4177047703140902e+01 4.2977008605071232e-01 0 0 0
176 2 2.5650963250443105e+01 1.2153976686459764e+01 2.2820371474512653e+00 0 0 0
178 2 2.6521875649258256e+01 1.4161894350373117e+01 4.0757955871126272e+00 0 0 0
180 2 2.6952933452851809e+01 1.4158134223827936e+01 1.6393113641022943e+00 0 0 0
181 2 2.7806094887736840e+01 1.2134602378040768e+01 3.4930851299240899e+00 0 0 0
177 2 2.8237040323816210e+01 1.2130755652587583e+01 1.0569278262577124e+00 0 0 0
182 2 2.9538682485633199e+01 1.4135786213031610e+01 4.1423764769968197e-01 0 0 0
183 2 3.0391422373015800e+01 1.2111677362281888e+01 2.2694456671411865e+00 0 0 0
184 2 3.1262022416111797e+01 1.4121077524848431e+01 4.0627669193147939e+00 0 0 0
185 2 2.9107791640466647e+01 1.4139486381516598e+01 2.8503800969287094e+00 0 0 0
187 2 3.1692802787666952e+01 1.4117421344636492e+01 1.6268639022798113e+00 0 0 0
189 2 1.9240957958386786e+00 1.6348296147686121e+01 2.4310659822873801e+00 0 0 0
191 2 2.7875348555103492e+00 1.8367247583301474e+01 4.2481254517115206e+00 0 0 0
192 2 6.2822384641627838e-01 1.8365464608109548e+01 3.0599156606827984e+00 0 0 0
194 2 3.2193644283880376e+00 1.8366907213590121e+01 1.8073363894815446e+00 0 0 0
1006 2 1.0601017948596141e+00 1.8366595248092974e+01 6.1907406482307770e-01 0 0 0
190 2 4.5140384502738620e+00 1.6346061308793512e+01 1.1845333896908292e+00 0 0 0
195 2 4.0823822418444164e+00 1.6346912588968419e+01 3.6242740966193718e+00 0 0 0
196 2 6.6725404603877552e+00 1.6338913943212646e+01 2.3780600928652036e+00 0 0 0
197 2 7.5387117095390508e+00 1.8352328775914728e+01 4.1844470404936622e+00 0 0 0
198 2 5.3787612775031901e+00 1.8362068019334973e+01 2.9957267143009907e+00 0 0 0
200 2 7.9707116150406963e+00 1.8349498425520196e+01 1.7438117394772965e+00 0 0 0
1014 2 5.8107221784138012e+00 1.8360447552696883e+01 5.5497896281590453e-01 0 0 0
201 2 9.2633259611750489e+00 1.6324689547865713e+01 1.1324907494000036e+00 0 0 0
202 2 8.8315520801484553e+00 1.6327760873062957e+01 3.5720281011654924e+00 0 0 0
203 2 1.1422815850483413e+01 1.6309282035385174e+01 2.3273444396918306e+00 0 0 0
205 2 1.0131372084035272e+01 1.8334647060672786e+01 2.9334173274586224e+00 0 0 0
1022 2 1.0563545244741457e+01 1.8331060831698409e+01 4.9302289903393487e-01 0 0 0
204 2 1.2292439937543948e+01 1.8316912817419414e+01 4.1243979163320583e+00 0 0 0
207 2 1.4014535645438215e+01 1.6287620748056401e+01 1.0842269563235982e+00 0 0 0
208 2 1.2724598970091058e+01 1.8312892536253294e+01 1.6843292346451770e+00 0 0 0
209 2 1.3582601098185895e+01 1.6291539347602946e+01 3.5233429264319325e+00 0 0 0
211 2 1.4885530846660705e+01 1.8293456250081032e+01 2.8777549134176912e+00 0 0 0
1030 2 1.5317660023253056e+01 1.8289379923600062e+01 4.3823429101274081e-01 0 0 0
210 2 1.6174224872232550e+01 1.6268471987182000e+01 2.2821252375089602e+00 0 0 0
213 2 1.8765194944172993e+01 1.6245039758196107e+01 1.0438334755433878e+00 0 0 0
214 2 1.7045822371675531e+01 1.8273732333131164e+01 4.0738140063749029e+00 0 0 0
215 2 1.7477781889621951e+01 1.8269757652621038e+01 1.6348477729061202e+00 0 0 0
216 2 1.8333422496978862e+01 1.6248965126161732e+01 3.4820892741096157e+00 0 0 0
217 2 1.9636870098953601e+01 1.8250542939971076e+01 2.8343801040509096e+00 0 0 0
1038 2 2.0068563945042833e+01 1.8246743987029848e+01 3.9611379250963885e-01 0 0 0
219 2 2.0923424241901326e+01 1.6225757826780878e+01 2.2465602316578455e+00 0 0 0
220 2 2.3512043057357761e+01 1.6203092418684122e+01 1.0143531963878025e+00 0 0 0
221 2 2.1794800491795353e+01 1.8231903074374930e+01 4.0367760628388192e+00 0 0 0
222 2 2.2226258334684498e+01 1.8228243728039779e+01 1.5990604445321628e+00 0 0 0
223 2 2.3080697494692618e+01 1.6206830573289686e+01 3.4516004474649167e+00 0 0 0
224 2 2.4382840497132069e+01 1.8210251936795700e+01 2.8045829768646477e+00 0 0 0
225 2 2.4814036859146814e+01 1.8206704665470134e+01 3.6744700089634880e-01 0 0 0
226 2 2.5668171142118378e+01 1.6184624574662262e+01 2.2219581859248945e+00 0 0 0
228 2 2.6538441955307611e+01 1.8192647338861548e+01 4.0123594638047031e+00 0 0 0
230 2 2.6969461119349440e+01 1.8189164184799381e+01 1.5756349516968193e+00 0 0 0
231 2 2.7823445100781885e+01 1.6166470402681540e+01 3.4314352083575996e+00 0 0 0
227 2 2.8254408528392382e+01 1.6162871975166457e+01 9.9501109545245214e-01 0 0 0
232 2 2.9554950174579989e+01 1.8168421826267071e+01 3.4936988315345729e-01 0 0 0
233 2 3.0408830601871841e+01 1.6145004099749340e+01 2.2063926323684648e+00 0 0 0
234 2 3.1278124614916834e+01 1.8154706209303662e+01 3.9973006719323059e+00 0 0 0
235 2 2.9124102300470323e+01 1.8171861289816107e+01 2.7856842463791938e+00 0 0 0
237 2 3.1708867738521558e+01 1.8151288028525741e+01 1.5612684311294296e+00 0 0 0
239 2 1.9234177939565340e+00 2.0385977899789008e+01 2.4362632597121885e+00 0 0 0
241 2 2.7877341488068224e+00 2.2404851679269736e+01 4.2484210718282567e+00 0 0 0
242 2 6.2555472771275311e-01 2.2402155959242709e+01 3.0733942357054991e+00 0 0 0
244 2 3.2201472274740963e+00 2.2404229177821534e+01 1.8049427097033002e+00 0 0 0
1059 2 1.0580218522372749e+00 2.2403284464153472e+01 6.2989485432222614e-01 0 0 0
240 2 4.5160938389504128e+00 2.0383031494136969e+01 1.1766545621345483e+00 0 0 0
245 2 4.0839319011452329e+00 2.0384241101609096e+01 3.6186376157556439e+00 0 0 0
246 2 6.6771300847175965e+00 2.0373836872701830e+01 2.3593754793898896e+00 0 0 0
247 2 7.5456887728566908e+00 2.2384397731280519e+01 4.1561900652991630e+00 0 0 0
248 2 5.3824871604476900e+00 2.2397666357282599e+01 2.9801953654313262e+00 0 0 0
250 2 7.9784850735396358e+00 2.2380855851276731e+01 1.7130773332134985e+00 0 0 0
1067 2 5.8151744574189523e+00 2.2395297355072071e+01 5.3679103372465387e-01 0 0 0
251 2 9.2714494792965745e+00 2.0356060377364674e+01 1.1012160461296343e+00 0 0 0
252 2 8.8389876926634336e+00 2.0359624018871731e+01 3.5428443124291795e+00 0 0 0
253 2 1.1433932206245613e+01 2.0337702436965376e+01 2.2866247287098376e+00 0 0 0
255 2 1.0142563967758246e+01 2.2362144851809258e+01 2.8912944597180612e+00 0 0 0
1075 2 1.0575455584390488e+01 2.2357931437247803e+01 4.4879208695064099e-01 0 0 0
254 2 1.2306612368402606e+01 2.2341545070008536e+01 4.0727812927475071e+00 0 0 0
257 2 1.4028713261902109e+01 2.0313597805678629e+01 1.0341574865796461e+00 0 0 0
258 2 1.2739372298964504e+01 2.2337114603742506e+01 1.6310519110850579e+00 0 0 0
259 2 1.3596310773926243e+01 2.0317822986836266e+01 3.4746726346625341e+00 0 0 0
261 2 1.4902034444705709e+01 2.2316769071459941e+01 2.8179107030240518e+00 0 0 0
1083 2 1.5334398312870139e+01 2.2312667397480247e+01 3.7732964453954404e-01 0 0 0
260 2 1.6190029155187027e+01 2.0293689513082587e+01 2.2263263621838578e+00 0 0 0
263 2 1.8781845150409186e+01 2.0270690516260895e+01 9.8332672135301769e-01 0 0 0
264 2 1.7062946164701337e+01 2.2297517974625908e+01 4.0096282084518569e+00 0 0 0
265 2 1.7494930011535626e+01 2.2293738306063563e+01 1.5700114708519826e+00 0 0 0
266 2 1.8350008896118258e+01 2.0274475885281088e+01 3.4222290977062158e+00 0 0 0
267 2 1.9653663174509873e+01 2.2275967829814803e+01 2.7671532629856110e+00 0 0 0
1091 2 2.0085211859069986e+01 2.2272506286595629e+01 3.2853879081450366e-01 0 0 0
269 2 2.0940098429604546e+01 2.0252531233975191e+01 2.1834995708960450e+00 0 0 0
270 2 2.3528282403375901e+01 2.0231625392586412e+01 9.4928816829313289e-01 0 0 0
271 2 2.1810824215255174e+01 2.2259078907766824e+01 3.9681450478596942e+00 0 0 0
272 2 2.2242095741331120e+01 2.2255777053322753e+01 1.5302250846704417e+00 0 0 0
273 2 2.3097033457561146e+01 2.0235055992789551e+01 3.3868106047643196e+00 0 0 0
274 2 2.4397765324493200e+01 2.2239546697095900e+01 2.7350014630722779e+00 0 0 0
275 2 2.5683898488278924e+01 2.0214703089698141e+01 2.1557781401872393e+00 0 0 0
277 2 2.6552501991846743e+01 2.2223570505119685e+01 3.9423172869720551e+00 0 0 0
279 2 2.6983357619908734e+01 2.2220393177315351e+01 1.5055219214704405e+00 0 0 0
280 2 2.7838651299363484e+01 2.0198030060130115e+01 3.3644529057371613e+00 0 0 0
1100 2 2.4828775309157852e+01 2.2236340872356429e+01 2.9775532923932180e-01 0 0 0
276 2 2.8269515564539169e+01 2.0194715640361473e+01 9.2789585122906637e-01 0 0 0
281 2 3.0423491014250462e+01 2.0178174526272461e+01 2.1387174752203997e+00 0 0 0
282 2 3.1290743367360299e+01 2.2188574906201321e+01 3.9267119310388434e+00 0 0 0
283 2 2.9137285631159198e+01 2.2204501021573677e+01 2.7152913773392315e+00 0 0 0
285 2 3.1721391080329617e+01 2.2185382743421240e+01 1.4906480609077404e+00 0 0 0
1107 2 2.9568008215812871e+01 2.2201322540127446e+01 2.7893268843914804e-01 0 0 0
287 2 1.9221356958172999e+00 2.4422798267498163e+01 2.4425597815243689e+00 0 0 0
289 2 2.7881199670407577e+00 2.6441183439533116e+01 4.2471024782413851e+00 0 0 0
290 2 6.2052298715195642e-01 2.6436273028513074e+01 3.0942905171185404e+00 0 0 0
292 2 3.2216396879940716e+00 2.6439592461297341e+01 1.7991409419443349e+00 0 0 0
1114 2 1.0539380990890841e+00 2.6437478236208729e+01 6.4642283138773105e-01 0 0 0
1117 2 2.3551057128068935e+00 2.4422879446001929e+01 1.3389726091789587e+01 0 0 -1
288 2 4.5195014492449053e+00 2.4418477622390252e+01 1.1628645761656093e+00 0 0 0
293 2 4.0864319910271618e+00 2.4420545204753406e+01 3.6082133814720985e+00 0 0 0
294 2 6.6845407535198769e+00 2.4405541928120435e+01 2.3296052644333636e+00 0 0 0
295 2 7.5577801797966613e+00 2.6410609074770054e+01 4.1093797099536333e+00 0 0 0
296 2 5.3892646844482286e+00 2.6429942723924718e+01 2.9528009093761036e+00 0 0 0
298 2 7.9916227276978926e+00 2.6405881444858622e+01 1.6629082159256696e+00 0 0 0
1122 2 5.8234670743347134e+00 2.6425892682554728e+01 5.0512042189088824e-01 0 0 0
299 2 9.2838640894938624e+00 2.4381953603049201e+01 1.0544271708369888e+00 0 0 0
300 2 8.8505307177827746e+00 2.4386399341165482e+01 3.4986502684939960e+00 0 0 0
301 2 1.1449779107577394e+01 2.4359911699230118e+01 2.2286175093590335e+00 0 0 0
303 2 1.0160132301070098e+01 2.6381952995036759e+01 2.8263349869202812e+00 0 0 0
1130 2 1.0593696309915982e+01 2.6377047487622185e+01 3.8143948570098574e-01 0 0 0
302 2 1.2325983274313010e+01 2.6360054553095704e+01 3.9986154281058188e+00 0 0 0
305 2 1.4046598970586984e+01 2.4334662346488248e+01 9.6730954983124318e-01 0 0 0
306 2 1.2758977760208861e+01 2.6355552210048451e+01 1.5555467568452166e+00 0 0 0
307 2 1.3613946290557744e+01 2.4338914117954442e+01 3.4090124990196178e+00 0 0 0
309 2 1.4920989543868123e+01 2.6336895491784105e+01 2.7384483009211964e+00 0 0 0
1138 2 1.5353048388385242e+01 2.6333301998469750e+01 2.9740276324992349e-01 0 0 0
308 2 1.6207938062298169e+01 2.4315826627421920e+01 2.1554413824172074e+00 0 0 0
311 2 1.8798601444719385e+01 2.4295200951961316e+01 9.1013479020734511e-01 0 0 0
312 2 1.7080196852061199e+01 2.6320277761860826e+01 3.9288098306350934e+00 0 0 0
313 2 1.7511764323175008e+01 2.6317074260166773e+01 1.4891057936812413e+00 0 0 0
314 2 1.8367022588457139e+01 2.4298548758700303e+01 3.3492917763810941e+00 0 0 0
315 2 1.9668456545076040e+01 2.6301978676376198e+01 2.6864291913174023e+00 0 0 0
1146 2 2.0099576658710145e+01 2.6299037681802016e+01 2.4792169193343766e-01 0 0 0
317 2 2.0955504707087698e+01 2.4279208307193901e+01 2.1095906948375305e+00 0 0 0
318 2 2.3542039011803997e+01 2.4260716961853074e+01 8.7518718583013599e-01 0 0 0
319 2 2.1823715223795322e+01 2.6287439328197568e+01 3.8880978869214129e+00 0 0 0
320 2 2.2254621425043691e+01 2.6284569009446312e+01 1.4503343486358542e+00 0 0 0
321 2 2.3111063714735568e+01 2.4263764958382460e+01 3.3127138650445915e+00 0 0 0
322 2 2.4408753301520857e+01 2.6270216339970808e+01 2.6559395013559910e+00 0 0 0
323 2 2.5696462867967444e+01 2.4245530631106735e+01 2.0817560570239735e+00 0 0 0
325 2 2.6562273272907927e+01 2.6255775777695678e+01 3.8640445596795971e+00 0 0 0
327 2 2.6992917708712596e+01 2.6252871060047472e+01 1.4273963323980265e+00 0 0 0
328 2 2.7850234647599422e+01 2.4230340334821680e+01 3.2905797841305349e+00 0 0 0
1155 2 2.4839488163910506e+01 2.6267345664083582e+01 2.1885800386240192e-01 0 0 0
324 2 2.8280926604422724e+01 2.4227294812258869e+01 8.5405500148318547e-01 0 0 0
329 2 3.0434178372250159e+01 2.4211966094142397e+01 2.0650314986921456e+00 0 0 0
330 2 3.1298803997627346e+01 2.6223250500272460e+01 3.8498036035181848e+00 0 0 0
331 2 2.9145977017882007e+01 2.6238183934073717e+01 2.6378333087115986e+00 0 0 0
333 2 3.1729350129402036e+01 2.6220235468165807e+01 1.4138360906936456e+00 0 0 0
1162 2 2.9576556552389818e+01 2.6235218876308796e+01 2.0159493232056439e-01 0 0 0
335 2 1.9195076525481791e+00 2.8455575268491440e+01 2.4525721087582975e+00 0 0 0
337 2 2.7894295919568388e+00 3.0471667247494626e+01 4.2420729527171197e+00 0 0 0
338 2 6.0804099005814805e-01 3.0459847200651218e+01 3.1372147866607722e+00 0 0 0
340 2 3.2267918092819334e+00 3.0465025939198295e+01 1.7840877306044387e+00 0 0 0
1169 2 1.0430734158813690e+00 3.0459942081922744e+01 6.8027979212286604e-01 0 0 0
1172 2 2.3542115515581377e+00 2.8454632831830040e+01 7.1982307334113760e-04 0 0 0
336 2 4.5271523323051035e+00 2.8448362879158143e+01 1.1352621008981667e+00 0 0 0
341 2 4.0917657939966983e+00 2.8453108656819250e+01 3.5869334178207395e+00 0 0 0
342 2 6.6984628503872550e+00 2.8429817414457403e+01 2.2754004711789184e+00 0 0 0
343 2 7.5817237154979713e+00 3.0422736024968501e+01 4.0173907712529493e+00 0 0 0
344 2 5.4036221018871933e+00 3.0453508852237611e+01 2.8950557712672969e+00 0 0 0
346 2 8.0168543688583078e+00 3.0415888981616980e+01 1.5660072154423665e+00 0 0 0
1177 2 5.8391949118356576e+00 3.0448152459384243e+01 4.4047328788043916e-01 0 0 0
347 2 9.3048792150873538e+00 2.8397447619239486e+01 9.7575579829535808e-01 0 0 0
348 2 8.8706733766983099e+00 2.8403060789804631e+01 3.4232572551500584e+00 0 0 0
349 2 1.1471785025264092e+01 2.8375172572427548e+01 2.1401065279854423e+00 0 0 0
351 2 1.0185224593664115e+01 3.0393299160587606e+01 2.7171860708987037e+00 0 0 0
1185 2 1.0618038939568040e+01 3.0388920639629927e+01 2.7098256529800713e-01 0 0 0
350 2 1.2347251749437484e+01 3.0375962180379741e+01 3.8876370165794314e+00 0 0 0
353 2 1.4066210007251982e+01 2.8353392330903677e+01 8.7509907913607943e-01 0 0 0
354 2 1.2779177854070801e+01 3.0372503067103196e+01 1.4448306656335224e+00 0 0 0
355 2 1.3634151414616968e+01 2.8356923015151882e+01 3.3170439076329359e+00 0 0 0
357 2 1.4936628025897525e+01 3.0358689073963486e+01 2.6311951069204667e+00 0 0 0
1193 2 1.5367655043060653e+01 3.0356063122028885e+01 1.9099910139980114e-01 0 0 0
356 2 1.6224577114587102e+01 2.8338186577897449e+01 2.0637336831419750e+00 0 0 0
359 2 1.8811748512963195e+01 2.8321456899872143e+01 8.2055071344726083e-01 0 0 0
360 2 1.7091952517075242e+01 3.0345970113240554e+01 3.8260519447670669e+00 0 0 0
361 2 1.7522747510438993e+01 3.0343487358684989e+01 1.3872315308686876e+00 0 0 0
362 2 1.8380755626015908e+01 2.8324181739707775e+01 3.2593114850918368e+00 0 0 0
363 2 1.9676719153573266e+01 3.0331127861525829e+01 2.5888594118147941e+00 0 0 0
1201 2 2.0107366939047502e+01 3.0328663720668512e+01 1.5115912434699483e-01 0 0 0
364 2 2.0535511513796859e+01 2.8310670996971371e+01 4.4599920905959749e+00 0 0 0
365 2 2.0966314370851578e+01 2.8307998908836563e+01 2.0220833611807514e+00 0 0 0