LAMMPS data file via write_data, version 11 Aug 2017, timestep = 1000

1453 atoms
2 atom types

0.0000000000000000e+00 4.4418233618542999e+01 xlo xhi
0.0000000000000000e+00 4.4418233618542999e+01 ylo yhi
0.0000000000000000e+00 8.5659366000000006e+00 zlo zhi

Masses

1 12.0107
2 55.845

Atoms # atomic

1 2 9.9734169827963703e-01 1.4304009520046508e+00 1.1137190184207002e+00 0 0 0
2 2 3.0690711767113403e+00 1.4713900619367193e+00 2.2435339922167312e+00 0 0 0
3 2 9.7849565324956722e-01 3.4953298948032292e+00 2.2593255631000297e+00 0 0 0
4 2 2.9881639737666066e+00 3.4906411725487438e+00 8.2892086536554910e-01 0 0 0
5 2 9.9081272784185370e-01 1.4184587655648861e+00 3.6155194735353517e+00 0 0 0
6 2 3.0070543084603205e+00 3.5089335379272284e+00 3.6636061319872750e+00 0 0 0
1453 1 9.9044323902394904e-01 1.4151923246558917e+00 7.8984367760820788e+00 0 0 -1
7 2 5.0174719842767290e+00 1.5506418761426024e+00 7.6554188711860238e-01 0 0 0
8 2 7.0466076735891274e+00 1.6377247521995295e+00 2.1963181402561189e+00 0 0 0
9 2 5.0095334184383447e+00 3.5734203055975597e+00 2.2495456352189658e+00 0 0 0
10 2 7.0075444760957009e+00 3.6592498167579381e+00 8.2554690321503654e-01 0 0 0
11 2 5.0685097918562638e+00 1.5491824150159881e+00 3.6325085555421222e+00 0 0 0
12 2 7.0165331254013408e+00 3.6574814710830532e+00 3.6861470019259959e+00 0 0 0
13 2 9.0578165789900460e+00 1.7290840018170477e+00 7.7647198798888006e-01 0 0 0
14 2 1.1072417100875683e+01 1.8222920687632043e+00 2.2059292505874231e+00 0 0 0
15 2 9.0232582421815302e+00 3.7475512701093918e+00 2.2596035860960693e+00 0 0 0
16 2 1.1040952071849444e+01 3.8389827861985761e+00 8.3359460927271056e-01 0 0 0
17 2 9.0549734432591311e+00 1.7297431148994742e+00 3.6351758670368022e+00 0 0 0
18 2 1.1039425067974632e+01 3.8389242723190637e+00 3.6893255030885870e+00 0 0 0
19 2 9.6312823915195200e-01 5.4373649941786413e+00 8.0217389730299249e-01 0 0 0
20 2 2.9607703295511087e+00 5.5243949846630276e+00 2.2778041954316364e+00 0 0 0
21 2 9.2774894557217125e-01 7.4607018526382873e+00 2.2751322495168420e+00 0 0 0
22 2 2.9033834459624699e+00 7.5388022687708354e+00 9.0200063667975394e-01 0 0 0
23 2 9.6167349872417174e-01 5.4894536782069325e+00 3.6711183697407019e+00 0 0 0
24 2 2.9002409960846300e+00 7.5476178648493635e+00 3.7633377458225969e+00 0 0 0
25 2 4.9558601964669853e+00 5.5954116275638714e+00 8.7330741478025176e-01 0 0 0
26 2 6.9583803647359810e+00 5.6802246242089351e+00 2.3145065391197237e+00 0 0 0
27 2 4.8772222754243293e+00 7.6260271158255586e+00 2.3637716479388726e+00 0 0 0
28 2 6.8651721695079209e+00 7.7055598370298579e+00 9.5291791413304505e-01 0 0 0
29 2 4.9585643602903708e+00 5.5982226654413623e+00 3.7291413295692211e+00 0 0 0
30 2 6.8648423898370146e+00 7.7051920840773356e+00 3.8076365019661518e+00 0 0 0
31 2 8.9653701086417286e+00 5.7673798556125675e+00 8.9346461325215543e-01 0 0 0
32 2 1.0981449287370125e+01 5.8549509263840323e+00 2.3221004475595000e+00 0 0 0
33 2 8.8648003344348911e+00 7.7864080814504151e+00 2.3879716080760707e+00 0 0 0
34 2 1.0876874839759855e+01 7.8699071814527315e+00 9.6199573376933267e-01 0 0 0
35 2 8.9660914526545650e+00 5.7663305317917315e+00 3.7492488576853886e+00 0 0 0
36 2 1.0877015946030941e+01 7.8697062900771204e+00 3.8171979395870328e+00 0 0 0
37 2 3.0659953553762755e+00 1.4689385495148917e+00 5.0115851042044746e+00 0 0 0
38 2 9.7699789113148383e-01 3.4895525345235829e+00 5.0266077653508425e+00 0 0 0
39 2 9.8529799295632747e-01 1.4076712705994665e+00 6.1172947847921639e+00 0 0 0
40 2 2.9660859606474990e+00 1.4727698371839959e+00 7.9103089910801359e+00 0 0 0
41 2 9.8113398546838482e-01 3.3891055085472752e+00 7.9252150971403896e+00 0 0 0
42 2 2.9867288052914645e+00 3.4881287492824447e+00 6.4958964804691890e+00 0 0 0
43 2 7.0465094478098980e+00 1.6384359055095787e+00 5.0729242625347037e+00 0 0 0
44 2 5.0090588246437093e+00 3.5729946335115197e+00 5.1054935797326593e+00 0 0 0
45 2 5.0165652698520287e+00 1.5510079584937504e+00 6.4977095985677193e+00 0 0 0
46 2 7.0379919698500668e+00 1.6379281230261049e+00 7.9172536546657728e+00 0 0 0
47 2 4.9848480576230871e+00 3.5710678215888985e+00 7.9596617202147240e+00 0 0 0
48 2 7.0076076018043807e+00 3.6597187073057302e+00 6.5462146858828758e+00 0 0 0
49 2 1.1072434432664759e+01 1.8223876221623110e+00 5.0614042044378236e+00 0 0 0
50 2 9.0234081249114038e+00 3.7479258919953828e+00 5.1201649411231065e+00 0 0 0
51 2 9.0578582033711488e+00 1.7294259759564319e+00 6.4937222554904404e+00 0 0 0
52 2 1.1074928368303711e+01 1.8221048298205347e+00 7.9166237329278974e+00 0 0 0
53 2 9.0233047404262763e+00 3.7486683379043506e+00 7.9728383673710210e+00 0 0 0
54 2 1.1041018582256061e+01 3.8391073860662273e+00 6.5451346575240565e+00 0 0 0
55 2 2.9608327892766719e+00 5.5233485233419470e+00 5.1344561634203307e+00 0 0 0
56 2 9.2833127089549972e-01 7.4597662947216108e+00 5.1532414720942645e+00 0 0 0
57 2 9.6350488221653563e-01 5.4350002460077018e+00 6.5349077658051993e+00 0 0 0
58 2 2.9597466275915587e+00 5.4989274718881580e+00 7.9872187226473104e+00 0 0 0
59 2 9.2816951815475479e-01 7.4507922047427462e+00 7.9960580109050152e+00 0 0 0
60 2 2.9038033821301248e+00 7.5383424870763882e+00 6.6227699725726321e+00 0 0 0
61 2 6.9586233387404608e+00 5.6803775842148490e+00 5.1707675466713381e+00 0 0 0
62 2 4.8777110931005003e+00 7.6259144442420874e+00 5.2198429221922620e+00 0 0 0
63 2 4.9562046498723538e+00 5.5951439990863170e+00 6.5839547878895459e+00 0 0 0
64 2 6.9562895315216098e+00 5.6817429824337520e+00 8.0256021956953916e+00 0 0 0
65 2 4.8796302508622107e+00 7.6238791658174918e+00 8.0743817606993318e+00 0 0 0
66 2 6.8655174161076262e+00 7.7056508695700261e+00 6.6624709864502245e+00 0 0 0
67 2 1.0981485557579576e+01 5.8550476468850965e+00 5.1779127869917643e+00 0 0 0
68 2 8.8649186701605203e+00 7.7864859390025005e+00 5.2427306545700461e+00 0 0 0
69 2 8.9654973571655834e+00 5.7675884973169307e+00 6.6052488085244656e+00 0 0 0
70 2 1.0981691115420189e+01 5.8553247778425854e+00 8.0330478326357806e+00 0 0 0
71 2 8.8646988224975249e+00 7.7869924257808831e+00 8.0984711119235140e+00 0 0 0
72 2 1.0876876066617417e+01 7.8699393019690236e+00 6.6725683619225062e+00 0 0 0
73 2 8.6232135478584460e-01 9.4667666055194264e+00 9.3053297320233663e-01 0 0 0
74 2 2.7669411707181477e+00 9.5825297197564741e+00 2.4184726786154620e+00 0 0 0
75 2 2.3585293400527707e+00 1.1580509239965798e+01 1.1272193251226514e+00 0 0 0
76 2 8.6169843689806069e-01 9.4629316486611419e+00 3.7898851555402229e+00 0 0 0
77 2 2.4721285334902718e-01 1.1522994555514995e+01 2.6338425655217415e+00 0 0 0
78 2 2.3587795658728128e+00 1.1579242441394063e+01 3.9833299904574271e+00 0 0 0
79 2 4.7179728739658344e+00 9.6570394269164126e+00 1.0167826401217062e+00 0 0 0
80 2 6.6975827518128712e+00 9.7280541577748778e+00 2.4556998370145613e+00 0 0 0
81 2 6.4528149190484871e+00 1.1734059267792567e+01 1.1083808600765952e+00 0 0 0
82 2 4.7165976432620127e+00 9.6574346247428853e+00 3.8723728551009358e+00 0 0 0
83 2 4.4174453934216986e+00 1.1659421899724158e+01 2.5397465027774295e+00 0 0 0
84 2 6.4526748937684166e+00 1.1734204778954680e+01 3.9635283769372887e+00 0 0 0
85 2 8.6958768101029982e+00 9.8025208762524798e+00 1.0331928845706091e+00 0 0 0
86 2 1.0705685270793319e+01 9.8804099165278156e+00 2.4629504497603816e+00 0 0 0
87 2 1.0484941084434977e+01 1.1888144980984510e+01 1.1114911313358167e+00 0 0 0
88 2 8.6959399678331799e+00 9.8024986313638269e+00 3.8881586163227739e+00 0 0 0
89 2 8.4741058193510685e+00 1.1810199752857727e+01 2.5362930104902910e+00 0 0 0
90 2 1.0484965523949844e+01 1.1888162180881400e+01 3.9667758449171435e+00 0 0 0
91 2 9.7922918590346755e-02 1.3516872137580048e+01 1.2865492908215783e+00 0 0 0
92 2 2.6942335147826402e-02 1.7557788098661614e+01 1.3665437010576726e+00 0 0 0
93 2 2.0959144371020968e+00 1.5589877929575852e+01 1.2881609215113587e+00 0 0 0
94 2 2.1784207304487024e+00 1.3579650260380081e+01 2.6491412905491925e+00 0 0 0
95 2 9.8409957689906916e-02 1.3516380325558449e+01 4.1412987227970675e+00 0 0 0
96 2 4.6487275282128288e-02 1.5534700706436364e+01 2.7655655670132084e+00 0 0 0
97 2 2.0600161748630565e+00 1.7604599377793829e+01 2.7621386825193119e+00 0 0 0
98 2 2.6962349612471570e-02 1.7557878117739726e+01 4.2218311172374801e+00 0 0 0
99 2 2.0960148137245485e+00 1.5589870722280235e+01 4.1433255634579602e+00 0 0 0
100 2 4.2355200212110775e+00 1.3658103511743288e+01 1.1941447987119997e+00 0 0 0
101 2 4.0918024024932915e+00 1.7674981403993201e+01 1.3157590354606667e+00 0 0 0
102 2 6.1742234979413650e+00 1.5746693544890743e+01 1.2497890725401466e+00 0 0 0
103 2 6.2766792764307224e+00 1.3738068330539720e+01 2.6109281300523759e+00 0 0 0
104 2 4.2355812315236880e+00 1.3657997841732943e+01 4.0494342017417351e+00 0 0 0
105 2 4.1391161809691326e+00 1.5664611649876878e+01 2.6893460179048274e+00 0 0 0
106 2 4.0918230874263317e+00 1.7674984001272879e+01 4.1710504968489177e+00 0 0 0
107 2 6.1742386807992133e+00 1.5746682255400509e+01 4.1051149080688880e+00 0 0 0
154 2 6.1202268500021342e+00 1.7757674567151010e+01 2.7350078736157881e+00 0 0 0
108 2 8.3034575812036451e+00 1.3819520935108297e+01 1.1810155617827958e+00 0 0 0
109 2 1.0217567975983304e+01 1.5920525531884387e+01 1.2509966614366721e+00 0 0 0
110 2 1.0317126739313320e+01 1.3902852959560144e+01 2.6122972299127358e+00 0 0 0
111 2 8.3034348112555403e+00 1.3819562177705837e+01 4.0363273665290009e+00 0 0 0
112 2 8.2003528507149586e+00 1.5832458688098859e+01 2.6747325872910013e+00 0 0 0
113 2 1.0217560549642023e+01 1.5920530581366435e+01 4.1063169276583915e+00 0 0 0
114 2 2.4488334359880709e-01 1.1525254018332284e+01 8.3449624254463721e+00 0 0 0
115 2 2.7672657705924872e+00 9.5816426269226262e+00 5.2780442843985824e+00 0 0 0
116 2 8.6237380376274042e-01 9.4666723425677723e+00 6.6491228277815919e+00 0 0 0
117 2 2.7697727329251149e+00 9.5816410461889827e+00 8.1307933153031939e+00 0 0 0
118 2 2.4727212643386867e-01 1.1523400938503009e+01 5.4893631851140698e+00 0 0 0
119 2 2.3591116976666928e+00 1.1580436564552860e+01 6.8388066543518509e+00 0 0 0
120 2 4.4179559837187279e+00 1.1659571670050985e+01 8.2505464305928058e+00 0 0 0
121 2 6.6977984262408459e+00 9.7281069585666096e+00 5.3102531718761643e+00 0 0 0
122 2 4.7183646793406480e+00 9.6569905611177500e+00 6.7276487427013478e+00 0 0 0
123 2 6.6981422062606910e+00 9.7279732862210633e+00 8.1660377977635719e+00 0 0 0
124 2 4.4177092606728419e+00 1.1659472310114408e+01 5.3952937296632992e+00 0 0 0
125 2 6.4528731241227950e+00 1.1734059950905008e+01 6.8188693995292287e+00 0 0 0
126 2 8.4741045948883063e+00 1.1810086121811823e+01 8.2468952379678981e+00 0 0 0
127 2 1.0705662424294051e+01 9.8804006406329421e+00 5.3181419342473291e+00 0 0 0
128 2 8.6959190024558524e+00 9.8025313214684200e+00 6.7433380035380859e+00 0 0 0
129 2 1.0705561011606704e+01 9.8804440551309227e+00 8.1735600438737528e+00 0 0 0
130 2 8.4740897850337547e+00 1.1810172718289270e+01 5.3914747000544505e+00 0 0 0
131 2 1.0484919239819904e+01 1.1888126238560590e+01 6.8220712203456308e+00 0 0 0
132 2 2.1782861907022379e+00 1.3580208702241285e+01 8.3596128760312958e+00 0 0 0
133 2 4.6435573289588625e-02 1.5534637236194136e+01 8.4760646167108735e+00 0 0 0
134 2 2.0600009227867977e+00 1.7604549953089926e+01 8.4727657741709113e+00 0 0 0
135 2 2.1785389127687274e+00 1.3579812229269089e+01 5.5041835129502754e+00 0 0 0
136 2 9.8309698596405801e-02 1.3516939402977581e+01 6.9963238675206849e+00 0 0 0
137 2 4.6534669353452560e-02 1.5534699854233239e+01 5.6205527937941451e+00 0 0 0
138 2 2.0600245742614138e+00 1.7604609613513134e+01 5.6173987164118486e+00 0 0 0
139 2 2.6957237329537587e-02 1.7557775790286435e+01 7.0771320120762136e+00 0 0 0
140 2 2.0959617545710421e+00 1.5589968294440466e+01 6.9985716581274415e+00 0 0 0
141 2 6.2767165151547015e+00 1.3738007587223521e+01 8.3216102580685654e+00 0 0 0
142 2 4.1390714129845589e+00 1.5664662339286753e+01 8.3999791139248625e+00 0 0 0
143 2 6.2766958703726230e+00 1.3738044561330257e+01 5.4662901520896128e+00 0 0 0
144 2 4.2355877250134730e+00 1.3658133208649721e+01 6.9048027362457089e+00 0 0 0
145 2 4.1391323628460537e+00 1.5664623090939802e+01 5.5446251380240854e+00 0 0 0
146 2 4.0918040137441007e+00 1.7674984857715891e+01 7.0263618004982034e+00 0 0 0
147 2 6.1742235409639052e+00 1.5746679260864287e+01 6.9604510647582583e+00 0 0 0
155 2 6.1202145723889432e+00 1.7757683119139436e+01 8.4456346476260808e+00 0 0 0
156 2 6.1202252155320558e+00 1.7757671116218845e+01 5.5903268459868354e+00 0 0 0
148 2 1.0317125516841379e+01 1.3902826607038135e+01 8.3229156587204915e+00 0 0 0
149 2 8.2003565228776232e+00 1.5832443245769149e+01 8.3853672901983565e+00 0 0 0
150 2 1.0317118811772398e+01 1.3902841789788852e+01 5.4676066692493848e+00 0 0 0
151 2 8.3034497387679842e+00 1.3819495874329840e+01 6.8916536254438858e+00 0 0 0
152 2 8.2003501354819903e+00 1.5832447609342543e+01 5.5300737303547347e+00 0 0 0
153 2 1.0217566770837799e+01 1.5920521709980520e+01 6.9616288732024181e+00 0 0 0
157 2 1.4418346508894278e-02 2.1598281715298263e+01 1.3947244770878018e+00 0 0 0
158 2 2.0437591087537488e+00 1.9619745046040020e+01 1.3682004598393640e+00 0 0 0
159 2 1.8610369998808510e-02 1.9579752385715160e+01 2.8112063163562651e+00 0 0 0
160 2 2.0351812089074723e+00 2.1633064288717563e+01 2.8227553590209564e+00 0 0 0
161 2 1.4420152308924336e-02 2.1598286043194303e+01 4.2500533871412509e+00 0 0 0
162 2 2.0437603939966515e+00 1.9619775044349865e+01 4.2235115908730085e+00 0 0 0
163 2 4.0562859794264519e+00 2.1696994040338645e+01 1.3986211263885824e+00 0 0 0
164 2 6.0924994913968753e+00 1.9769407305878737e+01 1.3578770223003100e+00 0 0 0
166 2 4.0689139318349907e+00 1.9686364316262750e+01 2.7876771290749796e+00 0 0 0
167 2 6.0763386334300087e+00 2.1781180789914941e+01 2.8319172975756195e+00 0 0 0
168 2 4.0562832303619807e+00 2.1696996880823619e+01 4.2539335411670995e+00 0 0 0
169 2 6.0925013070895488e+00 1.9769404365108279e+01 4.2131875844505586e+00 0 0 0
170 2 8.1438893102677703e+00 1.7846134174359602e+01 1.3062909700326315e+00 0 0 0
171 2 8.0950838990282943e+00 2.1873302839091973e+01 1.4109842676850506e+00 0 0 0
172 2 1.0132351865541768e+01 1.9952668899134707e+01 1.3654811821295345e+00 0 0 0
173 2 1.0162553225592037e+01 1.7937208448709971e+01 2.7383153674592400e+00 0 0 0
174 2 8.1438906552217922e+00 1.7846128210340680e+01 4.1616123984755680e+00 0 0 0
175 2 8.1136549946783649e+00 1.9859727974138558e+01 2.7877851475309492e+00 0 0 0
176 2 1.0113037665053923e+01 2.1967511992496014e+01 2.8456035933548103e+00 0 0 0
177 2 8.0950837449406805e+00 2.1873301908312300e+01 4.2662952285675422e+00 0 0 0
178 2 1.0132352071565963e+01 1.9952667360391402e+01 4.2207948275802769e+00 0 0 0
165 2 1.0081654972179535e-02 2.5626325031250932e+01 4.2639706579519929e+00 0 0 0
179 2 2.0200301991976430e+00 2.5651323043689889e+01 1.5912562682155351e-02 0 0 0
180 2 2.0285546749233130e+00 2.3643560849126430e+01 1.4191182349936984e+00 0 0 0
181 2 2.0200363842949884e+00 2.5651300501483806e+01 2.8712512013473637e+00 0 0 0
217 2 2.0285537507367333e+00 2.3643546576703994e+01 4.2744418494558820e+00 0 0 0
233 2 1.0092651544623191e-02 2.5626341433134382e+01 1.4086627636272939e+00 0 0 0
234 2 1.1923990655265481e-02 2.3613349702777690e+01 2.8303342543005741e+00 0 0 0
182 2 4.0457711837379664e+00 2.3706002376538521e+01 7.7144403307902358e-03 0 0 0
183 2 6.0409777728050980e+00 2.5805803225343773e+01 7.0432140500951451e-02 0 0 0
184 2 4.0311135234955442e+00 2.5713270282724704e+01 1.4741615956151892e+00 0 0 0
185 2 6.0619494045592202e+00 2.3793017913086636e+01 1.4497971008275810e+00 0 0 0
186 2 4.0457684718922371e+00 2.3706004456426349e+01 2.8630244826316793e+00 0 0 0
187 2 6.0409765629817977e+00 2.5805800411343434e+01 2.9257504551299593e+00 0 0 0
188 2 8.0775470552491662e+00 2.3887327962627122e+01 3.4084099584537841e-02 0 0 0
189 2 1.0064150088238041e+01 2.5998128851978414e+01 9.9396491058047529e-02 0 0 0
190 2 8.0511408017081063e+00 2.5902774261315148e+01 1.5155441865580983e+00 0 0 0
191 2 1.0093890972102157e+01 2.3982409576345379e+01 1.4708396148566445e+00 0 0 0
192 2 8.0775459388813999e+00 2.3887328104262963e+01 2.8893959414883539e+00 0 0 0
193 2 1.0064149514133707e+01 2.5998129960482064e+01 2.9547064817920017e+00 0 0 0
194 2 1.8610299813036080e-02 1.9579708364843061e+01 8.5218420779412600e+00 0 0 0
195 2 2.0351848594066042e+00 2.1633053154059542e+01 8.5333888379847078e+00 0 0 0
196 2 1.8615795171283409e-02 1.9579743305939829e+01 5.6665462156351953e+00 0 0 0
197 2 2.0351835641952398e+00 2.1633055497152665e+01 5.6780863384159685e+00 0 0 0
198 2 1.4420330698332581e-02 2.1598278999928493e+01 7.1053717348742413e+00 0 0 0
199 2 2.0437627521123214e+00 1.9619735252383279e+01 7.0788378596918138e+00 0 0 0
201 2 4.0689129039290117e+00 1.9686352100471467e+01 8.4983045752202990e+00 0 0 0
202 2 6.0763400719124556e+00 2.1781179132750886e+01 8.5425423347709710e+00 0 0 0
204 2 4.0689136818617264e+00 1.9686362337332682e+01 5.6429863816229267e+00 0 0 0
205 2 6.0763384253930308e+00 2.1781179473632985e+01 5.6872279189097972e+00 0 0 0
206 2 4.0562870063359666e+00 2.1696988502221359e+01 7.1092513158607806e+00 0 0 0
207 2 6.0924981347173590e+00 1.9769407359614345e+01 7.0684981784322325e+00 0 0 0
208 2 1.0162555508711302e+01 1.7937208383958477e+01 8.4489404593800810e+00 0 0 0
209 2 8.1136529086031075e+00 1.9859732564803277e+01 8.4984085308752046e+00 0 0 0
210 2 1.0113037156267414e+01 2.1967513383488605e+01 8.5562275889892803e+00 0 0 0
211 2 1.0162553235497882e+01 1.7937207929740850e+01 5.5936330804166623e+00 0 0 0
212 2 8.1438881367265168e+00 1.7846131792954083e+01 7.0169269864670101e+00 0 0 0
213 2 8.1136542665345370e+00 1.9859728478647309e+01 5.6430976660847740e+00 0 0 0
214 2 1.0113037500904630e+01 2.1967512696043709e+01 5.7009151126106827e+00 0 0 0
215 2 8.0950835064776463e+00 2.1873303397098159e+01 7.1216065664871149e+00 0 0 0
216 2 1.0132351849193554e+01 1.9952669386182631e+01 7.0761069867848168e+00 0 0 0
200 2 1.1922061777084296e-02 2.3613356261261178e+01 5.6856602137794079e+00 0 0 0
203 2 1.0080088278773051e-02 2.5626363082535910e+01 7.1192830969073180e+00 0 0 0
218 2 2.0200267754164720e+00 2.5651301897469246e+01 5.7265553669699845e+00 0 0 0
219 2 2.0285548437210577e+00 2.3643552980660022e+01 7.1297539894464439e+00 0 0 0
232 2 1.1923367192043640e-02 2.3613363939009233e+01 8.5409589722944101e+00 0 0 0
220 2 4.0311184208845381e+00 2.5713251476140233e+01 4.3294956934340387e+00 0 0 0
221 2 6.0619488925633522e+00 2.3793015715202465e+01 4.3051102468598712e+00 0 0 0
222 2 4.0457707075193099e+00 2.3705993744180152e+01 5.7183441822930003e+00 0 0 0
223 2 6.0409829890955971e+00 2.5805797783861674e+01 5.7810655511608688e+00 0 0 0
224 2 4.0311155171247437e+00 2.5713260556759735e+01 7.1847876454146817e+00 0 0 0
225 2 6.0619513866466246e+00 2.3793013696137582e+01 7.1604233511506648e+00 0 0 0
226 2 8.0511431526736654e+00 2.5902774227827965e+01 4.3708555358606285e+00 0 0 0
227 2 1.0093891021393439e+01 2.3982409876134277e+01 4.3261505192534004e+00 0 0 0
228 2 8.0775468340828791e+00 2.3887328178367238e+01 5.7447073441420127e+00 0 0 0
229 2 1.0064150511465151e+01 2.5998129429379706e+01 5.8100184177041720e+00 0 0 0
230 2 8.0511448468053164e+00 2.5902774231173726e+01 7.2261694819566333e+00 0 0 0
231 2 1.0093891068613585e+01 2.3982410204606058e+01 7.1814630498399561e+00 0 0 0
235 2 1.9791254103117795e+00 2.9663956763606834e+01 8.6841077338885145e-02 0 0 0
236 2 2.0056767372342845e+00 2.7657314756034342e+01 1.4726842286163828e+00 0 0 0
237 2 1.9791567068382614e+00 2.9663960018718196e+01 2.9421980751647498e+00 0 0 0
296 2 6.9824499911079725e-03 2.9662176132785302e+01 1.4167135016236032e+00 0 0 0
297 2 8.4362899448511153e-03 2.7640472757939907e+01 2.8409464775051112e+00 0 0 0
301 2 6.9344550135171821e-03 2.9662247011873891e+01 4.2718308998622598e+00 0 0 0
238 2 4.0052226945826579e+00 2.7719434424117470e+01 9.2195613825004838e-02 0 0 0
239 2 5.9321315409230424e+00 2.9845207588276811e+01 1.9376273083991724e-01 0 0 0
240 2 3.9561075663939191e+00 2.9726003301719079e+01 1.5799649872361765e+00 0 0 0
241 2 6.0032138012147138e+00 2.7821688565694402e+01 1.5533447197064467e+00 0 0 0
242 2 4.0052410246071073e+00 2.7719399626664828e+01 2.9475816859767239e+00 0 0 0
243 2 5.9321561972276191e+00 2.9845197554562645e+01 3.0491016087914478e+00 0 0 0
244 2 8.0032645588932461e+00 2.7921353315306522e+01 1.4817682370265439e-01 0 0 0
245 2 9.9084410035300738e+00 3.0035326641442182e+01 2.3301232504125755e-01 0 0 0
246 2 7.9136710400468493e+00 2.9945327661130136e+01 1.6467636974150293e+00 0 0 0
247 2 1.0009538450591970e+01 2.8015637062445943e+01 1.5894423502231987e+00 0 0 0
248 2 8.0032649798608979e+00 2.7921354426126836e+01 3.0034869423697179e+00 0 0 0
249 2 9.9084416086407465e+00 3.0035330845805259e+01 3.0883287391387229e+00 0 0 0
250 2 1.1063664396233064e+00 3.3746952573119486e+01 6.6244604805876450e-01 0 0 0
251 2 1.9413256615031773e+00 3.1677282990000247e+01 1.5923183310629065e+00 0 0 0
253 2 3.3182323666505065e+00 3.3776661151817173e+01 1.8907886550546000e+00 0 0 0
254 2 1.1064950480975757e+00 3.3748042874458513e+01 3.5170721467534096e+00 0 0 0
299 2 7.4148707758819443e-03 3.1699958487194003e+01 2.8452053032659186e+00 0 0 0
252 2 3.8623691287081225e+00 3.1738700674030657e+01 2.3964528995898840e-01 0 0 0
255 2 3.8624594508359809e+00 3.1738738721529050e+01 3.0948242712787577e+00 0 0 0
256 2 5.4025332015301260e+00 3.3878413242140681e+01 4.1489918426820938e-01 0 0 0
257 2 5.7774576123692851e+00 3.1883408415596737e+01 1.7144312240094508e+00 0 0 0
258 2 5.4024510919513808e+00 3.3878679112583548e+01 3.2702069624176286e+00 0 0 0
259 2 7.7397453360398423e+00 3.1970902627615420e+01 3.0558636379822729e-01 0 0 0
260 2 9.4748576519469001e+00 3.4057965142763045e+01 4.0053309978828289e-01 0 0 0
261 2 9.7282741337706060e+00 3.2052542773981223e+01 1.7419190504054773e+00 0 0 0
262 2 7.4489530220917759e+00 3.3973588715481903e+01 1.8309865338438340e+00 0 0 0
263 2 7.7397549162100781e+00 3.1970929316021941e+01 3.1609546855187980e+00 0 0 0
264 2 9.4748466722478106e+00 3.4057919081033091e+01 3.2558543076861990e+00 0 0 0
265 2 2.0056643632175040e+00 2.7657334887569551e+01 4.3280102455478477e+00 0 0 0
266 2 1.9790899541541929e+00 2.9664134860301569e+01 5.7973877300574888e+00 0 0 0
267 2 2.0056421098145147e+00 2.7657369390557669e+01 7.1832480981932640e+00 0 0 0
295 2 8.4353108709162780e-03 2.7640499264985635e+01 8.5515808358250709e+00 0 0 0
302 2 8.4025102062697601e-03 2.7640488082226117e+01 5.6961876461651268e+00 0 0 0
303 2 6.9362064204320463e-03 2.9662063222211163e+01 7.1271635105290878e+00 0 0 0
268 2 3.9560960477632507e+00 2.9726114931033056e+01 4.4352938807139664e+00 0 0 0
269 2 6.0032280013947643e+00 2.7821689390627650e+01 4.4086737758324022e+00 0 0 0
270 2 4.0052324974870857e+00 2.7719433390945575e+01 5.8028678014753829e+00 0 0 0
271 2 5.9321354620557027e+00 2.9845235051711050e+01 5.9043882704617667e+00 0 0 0
272 2 3.9560556101525122e+00 2.9726174914857030e+01 7.2905060518326597e+00 0 0 0
273 2 6.0032225902241736e+00 2.7821702668736616e+01 7.2639654687748099e+00 0 0 0
274 2 7.9136755147839022e+00 2.9945328557677897e+01 4.5020826732375170e+00 0 0 0
275 2 1.0009540033313549e+01 2.8015636789670143e+01 4.4447531181956261e+00 0 0 0
276 2 8.0032713950414074e+00 2.7921352978852664e+01 5.8588002583119643e+00 0 0 0
277 2 9.9084448300896941e+00 3.0035325039955879e+01 5.9436455946015210e+00 0 0 0
278 2 7.9136676325129374e+00 2.9945317793898298e+01 7.3573850129602691e+00 0 0 0
279 2 1.0009540328801577e+01 2.8015633205612868e+01 7.3000682986595695e+00 0 0 0
280 2 3.3184890603280532e+00 3.3776087804925929e+01 7.6010353021580910e+00 0 0 0
281 2 1.9411933001328683e+00 3.1677636623905709e+01 4.4472863104401101e+00 0 0 0
282 2 3.3183195922938595e+00 3.3776905895737919e+01 4.7454559584618350e+00 0 0 0
283 2 1.1068556962486604e+00 3.3747145295676901e+01 6.3717826656928853e+00 0 0 0
284 2 1.9411916561021176e+00 3.1677397635964461e+01 7.3029204870514750e+00 0 0 0
298 2 7.4049669613133083e-03 3.1699268349359869e+01 8.5558133889374730e+00 0 0 0
300 2 7.3244520054178064e-03 3.1699553115840224e+01 5.7005636136042241e+00 0 0 0
285 2 3.8621360933678832e+00 3.1739047715608493e+01 5.9500608258670207e+00 0 0 0
286 2 5.7773832243125920e+00 3.1883464016126357e+01 4.5697213692379410e+00 0 0 0
287 2 5.4024847464666665e+00 3.3878490391041822e+01 6.1254111410511394e+00 0 0 0
288 2 5.7773365444058689e+00 3.1883380336280059e+01 7.4249686528611951e+00 0 0 0
289 2 7.4489683205231696e+00 3.3973601885912991e+01 7.5415850873333641e+00 0 0 0
290 2 9.7282870551942473e+00 3.2052540525000587e+01 4.5972541290767595e+00 0 0 0
291 2 7.4489405354116043e+00 3.3973600183002745e+01 4.6863052691766001e+00 0 0 0
292 2 7.7397470699957447e+00 3.1970911782309269e+01 6.0162486077616650e+00 0 0 0
293 2 9.4748636218812745e+00 3.4057958871492865e+01 6.1111619568111868e+00 0 0 0
294 2 9.7282887760301158e+00 3.2052549804780334e+01 7.4525510444895220e+00 0 0 0
304 2 1.0221914775952108e+00 3.7743604867321437e+01 6.8823748231727966e-01 0 0 0
305 2 3.1459357959523913e+00 3.5779805414383794e+01 5.6101040602012220e-01 0 0 0
306 2 1.0514002012684185e+00 3.5730120287014437e+01 2.0983730850483342e+00 0 0 0
307 2 3.0732315020562249e+00 3.7799759244736826e+01 2.0519129469036637e+00 0 0 0
308 2 1.0217243201046586e+00 3.7746241658897347e+01 3.5466554520537539e+00 0 0 0
309 2 3.1455742078725306e+00 3.5781454151901912e+01 3.4166473057000299e+00 0 0 0
310 2 1.0097825338988531e+00 3.9763302805446109e+01 2.1267015167108001e+00 0 0 0
323 2 3.0429621491531571e+00 3.9824433213274226e+01 6.6644343117174232e-01 0 0 0
327 2 3.0409135304477291e+00 3.9817660163270496e+01 3.5260156507715110e+00 0 0 0
311 2 5.1168021525844427e+00 3.7889846799839248e+01 5.8564119205465837e-01 0 0 0
312 2 5.2110391035172698e+00 3.5878440008412952e+01 1.9392978328411601e+00 0 0 0
313 2 5.1156982007943679e+00 3.7889859590025907e+01 3.4412557531026895e+00 0 0 0
314 2 7.2575674744840484e+00 3.5975484268428893e+01 4.9006515500843284e-01 0 0 0
316 2 7.1521114743603187e+00 3.7986038930054150e+01 1.9918904627354084e+00 0 0 0
317 2 7.2573736571943765e+00 3.5975412224653098e+01 3.3453667659236226e+00 0 0 0
332 2 5.0713255561131927e+00 3.9906826445160043e+01 2.0703007704972132e+00 0 0 0
315 2 9.1796248255730060e+00 3.8079729675439495e+01 5.5412897655108795e-01 0 0 0
318 2 9.2880480410789446e+00 3.6065921935481342e+01 1.9093430361477535e+00 0 0 0
319 2 9.1795790488753291e+00 3.8079739452892845e+01 3.4092977455678182e+00 0 0 0
320 2 1.0006185726754093e+00 4.3761945981590500e+01 2.2083215113255128e+00 0 0 0
321 2 3.0185099033881038e+00 4.3870635041702542e+01 7.5739213133607752e-01 0 0 0
322 2 1.0027361334319900e+00 4.1802255024880218e+01 7.1507787357459440e-01 0 0 0
324 2 3.0384773838075905e+00 4.3849768639088161e+01 3.5921892053915716e+00 0 0 0
325 2 3.0292927651135888e+00 4.1837293560703799e+01 2.1312993826305044e+00 0 0 0
326 2 1.0041185643072552e+00 4.1751572416047431e+01 3.5786863031506231e+00 0 0 0
328 2 5.0479626079273734e+00 4.3946199595275040e+01 2.1589933404099657e+00 0 0 0
329 2 7.0553086546773667e+00 4.4035462226343064e+01 7.2497132345087034e-01 0 0 0
330 2 5.0500655345389251e+00 4.1927337164817239e+01 6.8937544808656825e-01 0 0 0
331 2 7.0612518529709680e+00 4.4038151156525828e+01 3.5853482852100322e+00 0 0 0
333 2 5.0518362244547381e+00 4.1925343545476551e+01 3.5457665848293631e+00 0 0 0
336 2 7.0989431487660086e+00 4.0000802646035652e+01 6.2652156004828941e-01 0 0 0
339 2 7.0722395639598421e+00 4.2018728594123509e+01 2.1072440118958999e+00 0 0 0
340 2 7.0982144317638074e+00 4.0001468123917832e+01 3.4814979560331527e+00 0 0 0
334 2 9.0741599069254875e+00 4.4129926856789346e+01 2.1530292957539148e+00 0 0 0
335 2 1.1092595939204552e+01 4.4223371448360979e+01 7.2514016971202278e-01 0 0 0
337 2 9.0921903444010184e+00 4.2111829315800364e+01 6.7392025736097194e-01 0 0 0
338 2 1.1091074491243472e+01 4.4223774420789802e+01 3.5805903322294159e+00 0 0 0
341 2 9.1220172626660467e+00 4.0095748280605456e+01 2.0453742056289399e+00 0 0 0
342 2 9.0919467360545205e+00 4.2113108307766538e+01 3.5295408005169313e+00 0 0 0
343 2 1.0513750105582214e+00 3.5727627470609953e+01 7.8091512156575797e+00 0 0 0
344 2 3.0739573885389513e+00 3.7799172065258368e+01 7.7648172317390154e+00 0 0 0
345 2 1.0092564599696596e+00 3.9771549127425601e+01 7.8481979897090408e+00 0 0 0
346 2 1.0514135443920232e+00 3.5730258888297051e+01 4.9538764227682046e+00 0 0 0
347 2 3.0727402275759648e+00 3.7799860674994903e+01 4.9114693977265773e+00 0 0 0
348 2 1.0215360559156457e+00 3.7743660357089631e+01 6.4053597168413434e+00 0 0 0
349 2 3.1457775802512291e+00 3.5780014107639218e+01 6.2721917643265472e+00 0 0 0
350 2 1.0089395790176350e+00 3.9763071369695105e+01 5.0023412759160717e+00 0 0 0
366 2 3.0424165575734565e+00 3.9824212990833168e+01 6.3866959064702540e+00 0 0 0
351 2 5.2112889251112868e+00 3.5878218893577710e+01 7.6499658285923484e+00 0 0 0
352 2 5.2109342928144580e+00 3.5878550292899895e+01 4.7947865631999118e+00 0 0 0
353 2 5.1165569679397365e+00 3.7889957772347778e+01 6.2969104847303825e+00 0 0 0
354 2 7.1525032873679697e+00 3.7986079416106783e+01 7.7021767093288256e+00 0 0 0
356 2 7.1520055824654314e+00 3.7986091015875957e+01 4.8466766033686968e+00 0 0 0
357 2 7.2575276878448740e+00 3.5975505478309188e+01 6.2005821458312411e+00 0 0 0
367 2 5.0726895150011906e+00 3.9907705729736719e+01 7.7817174830825895e+00 0 0 0
371 2 5.0709548778872700e+00 3.9906827115446305e+01 4.9268637534414035e+00 0 0 0
355 2 9.2880855363353341e+00 3.6065994475662222e+01 7.6198841627610046e+00 0 0 0
358 2 9.2880466165029567e+00 3.6065911081570214e+01 4.7645335273365701e+00 0 0 0
359 2 9.1796076083527023e+00 3.8079729938279897e+01 6.2643388785832839e+00 0 0 0
360 2 3.0251958514772928e+00 4.1859087010541408e+01 7.8448542462201374e+00 0 0 0
361 2 1.0002246839415583e+00 4.3756272345925282e+01 4.9775098963993569e+00 0 0 0
362 2 9.9697774109269233e-01 4.3857976292772150e+01 7.8767798638358348e+00 0 0 0
363 2 3.0177452719290536e+00 4.3869108834131112e+01 6.4282110743379395e+00 0 0 0