LAMMPS data file via write_data, version 11 Aug 2017, timestep = 1000

8801 atoms
2 atom types

0.0000000000000000e+00 9.4699992267241996e+01 xlo xhi
0.0000000000000000e+00 8.0760424760986993e+01 ylo yhi
0.0000000000000000e+00 1.3392601342096000e+01 zlo zhi

Masses

1 12.0107
2 55.845

Atoms # atomic

1 2 6.4181133364487497e-01 1.1576479841294185e+00 3.6472480900627811e+00 0 0 0
2 2 2.6865723076140280e+00 1.1725332899506007e+00 1.6413589404776541e-01 0 0 0
3 2 2.8217962294344345e+00 1.1683976310841941e+00 2.5183246261194436e+00 0 0 0
4 2 1.5263151265362613e+00 3.1706454692317214e+00 1.8452830793228980e+00 0 0 0
5 2 3.7033687218560871e+00 3.2451675806721418e+00 6.5109635934915977e-01 0 0 0
144 2 1.9383565135576670e+00 3.1743089457661249e+00 4.2825078726075603e+00 0 0 0
432 2 2.2875655161795394e-01 1.1569706292110240e+00 1.1844478356070121e+00 0 0 0
8801 1 1.0720421004575136e+00 1.1534299500187990e+00 1.2791420403294357e+01 0 0 -1
6 2 4.0996007931644742e+00 3.2040064998651596e+00 3.0812423406113973e+00 0 0 0
7 2 5.3870498601385464e+00 1.1943039170947234e+00 3.6797479947537641e+00 0 0 0
8 2 7.1156641970735359e+00 1.2203869963319662e+00 1.3103054472853528e-02 0 0 0
9 2 4.9800840129245296e+00 1.1899522988737858e+00 1.2470274935218886e+00 0 0 0
10 2 7.5361989104426383e+00 1.2278099735222343e+00 2.4515937986958938e+00 0 0 0
11 2 6.2435160420094755e+00 3.2329099121485809e+00 1.8527489791493401e+00 0 0 0
150 2 6.6656059928981515e+00 3.2344059027604053e+00 4.2876021798581769e+00 0 0 0
12 2 1.0110864913509001e+01 1.2794190362879598e+00 3.6635298185943461e+00 0 0 0
13 2 9.6841814379357540e+00 1.2700477830859518e+00 1.2288316684405605e+00 0 0 0
14 2 8.3854006672762207e+00 3.2671593252891160e+00 6.2864653278185689e-01 0 0 0
15 2 1.0951918271342903e+01 3.3226821685353976e+00 1.8411358654328873e+00 0 0 0
16 2 8.8092736277247354e+00 3.2750937658842756e+00 3.0637178557534508e+00 0 0 0
17 2 1.1831417266033187e+01 1.3191768253014289e+00 7.5979743651985272e-03 0 0 0
18 2 1.2258916300228144e+01 1.3295831411853556e+00 2.4424032878117234e+00 0 0 0
19 2 1.4836229504978155e+01 1.3948815377784478e+00 3.6570341260184507e+00 0 0 0
20 2 1.4406821475225158e+01 1.3837169823241333e+00 1.2225122123877470e+00 0 0 0
21 2 1.3094470766054224e+01 3.3750879071108870e+00 6.1987351317467243e-01 0 0 0
22 2 1.3522118748589236e+01 3.3857222097692574e+00 3.0544056837299625e+00 0 0 0
156 2 1.1378998680886991e+01 3.3325543734021843e+00 4.2752967281045153e+00 0 0 0
23 2 1.6555233083518157e+01 1.4399483269817133e+00 3.9622508226852529e-03 0 0 0
24 2 1.6984808597319947e+01 1.4513280081750668e+00 2.4388607123649080e+00 0 0 0
26 2 1.5666394758183076e+01 3.4408531910196718e+00 1.8351868990490452e+00 0 0 0
27 2 1.7812401956701798e+01 3.4968298602031860e+00 6.1748574438632786e-01 0 0 0
28 2 1.8241866266351149e+01 3.5080558380324032e+00 3.0525059455913079e+00 0 0 0
168 2 1.6095646507767199e+01 3.4520025289096044e+00 4.2698212856620588e+00 0 0 0
29 2 6.4360945428570482e-01 5.1773694472031488e+00 3.6592538933235632e+00 0 0 0
30 2 2.3548068957555750e+00 5.1798793776928775e+00 1.4848584947958987e-02 0 0 0
31 2 2.7979105291195370e+00 5.1982294151044544e+00 2.4563980604076021e+00 0 0 0
32 2 1.4963490407155713e+00 7.1877017211394518e+00 1.8409118537288491e+00 0 0 0
33 2 3.6401957086616825e+00 7.2147459993652303e+00 6.3358111258953520e-01 0 0 0
176 2 1.9281844815306126e+00 7.1951740679173177e+00 4.2791312697270785e+00 0 0 0
433 2 2.1108123428372180e-01 5.1644586873304545e+00 1.2214591525899379e+00 0 0 0
34 2 4.0740121806924643e+00 7.2262068597908824e+00 3.0722214983095024e+00 0 0 0
35 2 5.3723267541886504e+00 5.2353820947917669e+00 3.6859778385106363e+00 0 0 0
36 2 7.0893964765111228e+00 5.2670567390937393e+00 2.7363609720955029e-02 0 0 0
37 2 4.9561505652589011e+00 5.2453927000657403e+00 1.2523608080568158e+00 0 0 0
38 2 7.5128214419451025e+00 5.2746060067269296e+00 2.4636073298045411e+00 0 0 0
39 2 6.2167042716667664e+00 7.2737758379079844e+00 1.8604524465392616e+00 0 0 0
182 2 6.6389804530005243e+00 7.2764859680099372e+00 4.2948390776490655e+00 0 0 0
40 2 1.0073855472743279e+01 5.3282299684451626e+00 3.6745479608492544e+00 0 0 0
41 2 9.6489469439912092e+00 5.3191597858100863e+00 1.2400414843381879e+00 0 0 0
42 2 8.3467396094138380e+00 7.3167228776436888e+00 6.3793805643282209e-01 0 0 0
43 2 1.0901819604475349e+01 7.3778354379518332e+00 1.8510201849137209e+00 0 0 0
44 2 8.7712669860448358e+00 7.3263771461563660e+00 3.0730213806154412e+00 0 0 0
189 2 1.1327030779652929e+01 7.3878040240741054e+00 4.2856182811178583e+00 0 0 0
45 2 1.1785171363827068e+01 5.3700382219778522e+00 1.7958967621671530e-02 0 0 0
46 2 1.2211156283597004e+01 5.3801723005515623e+00 2.4526291964845393e+00 0 0 0
47 2 1.4777873121669797e+01 5.4445910451562396e+00 3.6675069735696990e+00 0 0 0
48 2 1.4350164883901563e+01 5.4339207999793020e+00 1.2327653793636177e+00 0 0 0
49 2 1.3034722881597549e+01 7.4305713605878436e+00 6.3143621966587138e-01 0 0 0
50 2 1.3460978261064954e+01 7.4408603688057076e+00 3.0664776892764527e+00 0 0 0
51 2 1.6491749820776320e+01 5.4882797680677440e+00 1.4842413525590788e-02 0 0 0
52 2 1.6920129816084437e+01 5.4990679895315937e+00 2.4499704507388733e+00 0 0 0
54 2 1.5598481063561030e+01 7.4936164904545315e+00 1.8495399860056019e+00 0 0 0
55 2 1.7739712603096795e+01 7.5461275584852494e+00 6.3406782786126459e-01 0 0 0
56 2 1.8168239829429211e+01 7.5565492302593702e+00 3.0695895281053285e+00 0 0 0
200 2 1.6026210735005275e+01 7.5040342401113911e+00 4.2848338576444176e+00 0 0 0
57 2 6.3741224245991379e-01 9.1916966817505159e+00 3.6645615629227017e+00 0 0 0
58 2 2.3500176964411077e+00 9.2065871986391095e+00 2.3257997209933885e-02 0 0 0
59 2 2.7776683627817764e+00 9.2126058592924078e+00 2.4603555457594601e+00 0 0 0
60 2 1.4899124128158328e+00 1.1201730535722263e+01 1.8472652180263343e+00 0 0 0
61 2 3.6179785413193297e+00 1.1242095530860418e+01 6.4007907736060321e-01 0 0 0
208 2 1.9168141224590969e+00 1.1207801251453684e+01 4.2853135334250529e+00 0 0 0
434 2 2.0895182453605005e-01 9.1895160749279672e+00 1.2264571365258796e+00 0 0 0
62 2 4.0426860074456332e+00 1.1252900788505013e+01 3.0761339438482231e+00 0 0 0
63 2 5.3398708561895232e+00 9.2668414915618715e+00 3.6858926956901645e+00 0 0 0
64 2 7.0405819997761085e+00 9.3096257670957048e+00 3.3249635420807992e-02 0 0 0
65 2 4.9117042448587380e+00 9.2552541685159451e+00 1.2494286007105380e+00 0 0 0
66 2 7.4677003867724787e+00 9.3234959114534011e+00 2.4688096200558820e+00 0 0 0
67 2 6.1600660357111465e+00 1.1313749001409468e+01 1.8600388065712059e+00 0 0 0
214 2 6.5838881939918608e+00 1.1327076876173608e+01 4.2955679559268045e+00 0 0 0
68 2 1.0015565148164715e+01 9.3878088162722655e+00 3.6836553605488138e+00 0 0 0
70 2 9.5912744591274670e+00 9.3770825640947510e+00 1.2484874003456463e+00 0 0 0
71 2 8.2765653096615246e+00 1.1375486308828107e+01 6.4376466944220234e-01 0 0 0
72 2 1.0821609400368157e+01 1.1442822897223801e+01 1.8659882126549854e+00 0 0 0
73 2 8.7007306806931251e+00 1.1388656997036039e+01 3.0796162121217336e+00 0 0 0
221 2 1.1246009942377944e+01 1.1453230947817040e+01 4.3023018840141001e+00 0 0 0
69 2 1.1717707277914840e+01 9.4300557543894659e+00 3.0657864386778408e-02 0 0 0
74 2 1.2143167342756577e+01 9.4405799867961608e+00 2.4661841198777954e+00 0 0 0
75 2 1.4701970718186875e+01 9.5017405115273164e+00 3.6869958255207065e+00 0 0 0
76 2 1.4275390042097721e+01 9.4917790452690838e+00 1.2511962633262139e+00 0 0 0
77 2 1.2948484411317809e+01 1.1493068262819392e+01 6.5487545266054892e-01 0 0 0
78 2 1.3374308884740502e+01 1.1502933444130147e+01 3.0914700957909558e+00 0 0 0
79 2 1.6412313802962558e+01 9.5420266208778646e+00 3.7681213023908117e-02 0 0 0
80 2 1.6839975288718527e+01 9.5519242400268336e+00 2.4736420780751347e+00 0 0 0
82 2 1.5508180255071258e+01 1.1550737626942796e+01 1.8815100942287164e+00 0 0 0
83 2 1.7647036141716125e+01 1.1597826888285732e+01 6.7135732597034781e-01 0 0 0
84 2 1.8075230952824160e+01 1.1607152054758931e+01 3.1077750879745301e+00 0 0 0
232 2 1.5935366051497351e+01 1.1560073740577064e+01 4.3180606730810185e+00 0 0 0
85 2 2.3279577801677132e+00 1.3224629127065164e+01 2.6244366834905962e-02 0 0 0
86 2 2.7503423178430584e+00 1.3236091882443779e+01 2.4631519357980567e+00 0 0 0
87 2 1.4600739855785763e+00 1.5209815492075899e+01 1.8401835276786376e+00 0 0 0
88 2 3.5464119065690025e+00 1.5293572535652132e+01 6.3028709586040443e-01 0 0 0
240 2 1.8767903181901313e+00 1.5225701673151967e+01 4.2771964698168352e+00 0 0 0
435 2 6.3200168641734245e-01 1.3190837089403765e+01 3.6672124518927851e+00 0 0 0
437 2 2.0655716112303460e-01 1.3187366481119115e+01 1.2277460633564716e+00 0 0 0
89 2 3.9624230299009389e+00 1.5311703670680547e+01 3.0680927781637974e+00 0 0 0
90 2 5.2751147219273724e+00 1.3320348192266165e+01 3.6849498947194026e+00 0 0 0
91 2 6.9582725862384116e+00 1.3374574080451016e+01 3.5931413103641875e-02 0 0 0
92 2 4.8548232954958017e+00 1.3305333148874970e+01 1.2491073920339442e+00 0 0 0
93 2 7.3795256896301966e+00 1.3388838473662965e+01 2.4725662190817279e+00 0 0 0
94 2 6.0500707108852270e+00 1.5392018987665853e+01 1.8631470503950445e+00 0 0 0
246 2 6.4681258120249181e+00 1.5407427134251234e+01 4.3016362211235348e+00 0 0 0
95 2 9.9166437065020396e+00 1.3458130711385968e+01 3.7032726168358612e+00 0 0 0
97 2 9.4930038271320658e+00 1.3446651983005275e+01 1.2656638912091518e+00 0 0 0
98 2 8.1537592791594165e+00 1.5452944798748220e+01 6.6659275830779419e-01 0 0 0
99 2 1.0694790786657402e+01 1.5512730195347766e+01 1.9111050036176478e+00 0 0 0
100 2 8.5754116496348622e+00 1.5464856414600057e+01 3.1061867800850660e+00 0 0 0
253 2 1.1120013795870403e+01 1.5522041864783468e+01 4.3502325292435700e+00 0 0 0
96 2 1.1614795139916424e+01 1.3496801952094224e+01 6.0994981906606495e-02 0 0 0
101 2 1.2040090619765026e+01 1.3506897880670913e+01 2.4987457851100427e+00 0 0 0
102 2 1.4597014035852489e+01 1.3561382495810587e+01 3.7314550928389307e+00 0 0 0
103 2 1.4170313113399006e+01 1.3552442345466309e+01 1.2939909902336513e+00 0 0 0
104 2 1.2822649485064064e+01 1.5556066981929307e+01 7.1332570202238188e-01 0 0 0
106 2 1.3249230374355937e+01 1.5564728760323323e+01 3.1518661825815872e+00 0 0 0
105 2 1.5384577673990806e+01 1.5606030908582026e+01 1.9501094736275915e+00 0 0 0
107 2 1.6306226548632186e+01 1.3596737760530852e+01 8.7942418627283081e-02 0 0 0
108 2 1.6733987189907964e+01 1.3605550963009714e+01 2.5250630479938891e+00 0 0 0
109 2 1.8875678026061994e+01 1.3649606721903490e+01 1.3168019663619361e+00 0 0 0
110 2 1.7524835769852750e+01 1.5647169318240818e+01 7.4517532925772156e-01 0 0 0
111 2 1.7953461702128649e+01 1.5655408101897416e+01 3.1823472347754649e+00 0 0 0
264 2 1.5812370097078626e+01 1.5614214628829458e+01 4.3878732651428374e+00 0 0 0
113 2 2.6357243934389119e+00 1.7293905780651532e+01 2.4335963357123735e+00 0 0 0
114 2 1.2869318075270715e+00 1.9269070779450264e+01 1.7698182070922590e+00 0 0 0
115 2 3.2937689062120086e+00 1.9383081333567585e+01 6.1572045308311407e-01 0 0 0
116 2 3.6945802691174152e+00 1.9418627232604045e+01 3.0916184261401738e+00 0 0 0
271 2 1.6603989208266774e+00 1.9284575362470967e+01 4.2152199337842164e+00 0 0 0
438 2 5.8273699202756057e-01 1.7191695040997409e+01 3.6401719296447319e+00 0 0 0
439 2 1.8202311999619092e-01 1.7182381341143447e+01 1.2091535100465438e+00 0 0 0
117 2 5.1125724207376182e+00 1.7415835061796500e+01 3.6932234957065702e+00 0 0 0
118 2 6.7938371401077395e+00 1.7461674446412140e+01 7.4531518750981407e-02 0 0 0
119 2 4.7000268793663436e+00 1.7396098312238859e+01 1.2496562637903015e+00 0 0 0
120 2 7.2128746417343175e+00 1.7473893819343871e+01 2.5178745278429466e+00 0 0 0
121 2 5.7998282931237304e+00 1.9477933438456059e+01 1.9611591056102131e+00 0 0 0
277 2 6.2250317421264132e+00 1.9488958109400649e+01 4.4076882711334706e+00 0 0 0
122 2 9.7558095210437319e+00 1.7528252613583966e+01 3.7763233390249846e+00 0 0 0
124 2 9.3305950728413869e+00 1.7519328092321025e+01 1.3355690276138605e+00 0 0 0
125 2 7.9286558962096523e+00 1.9521255240263667e+01 7.9091296952536838e-01 0 0 0
126 2 1.0496030952016726e+01 1.9567450100413353e+01 2.0407904338305287e+00 0 0 0
127 2 8.3555823266355631e+00 1.9529668821433180e+01 3.2322325308382749e+00 0 0 0
123 2 1.1459113681738604e+01 1.7560024970517116e+01 1.4516052446034339e-01 0 0 0
128 2 1.1885886012275364e+01 1.7568167897073263e+01 2.5846442265126295e+00 0 0 0
129 2 1.4450898604590710e+01 1.7614590185531345e+01 3.8248283570839092e+00 0 0 0
130 2 1.4022598299188665e+01 1.7606803301915427e+01 1.3866113990243589e+00 0 0 0
131 2 1.2641297613761024e+01 1.9604477710219857e+01 8.4088899914828963e-01 0 0 0
133 2 1.3071159301476337e+01 1.9611969437519992e+01 3.2785823144546331e+00 0 0 0
132 2 1.5219128262032127e+01 1.9649166814673670e+01 2.0731263590419569e+00 0 0 0
134 2 1.6163991964059658e+01 1.7645410303978185e+01 1.8385669534599777e-01 0 0 0
135 2 1.6592918910080066e+01 1.7653223095426874e+01 2.6213170470759946e+00 0 0 0
136 2 1.8738347272252803e+01 1.7692420548591933e+01 1.4144364754495233e+00 0 0 0
137 2 1.7368602469510549e+01 1.9687017487001359e+01 8.6480123577472467e-01 0 0 0
138 2 1.7798799419349756e+01 1.9694699504801527e+01 3.3013687170796540e+00 0 0 0
139 2 3.2361633855149092e+00 1.1711664769101091e+00 4.9143580802902411e+00 0 0 0
140 2 1.5024339296938158e+00 1.1601708387912810e+00 8.5431116543310974e+00 0 0 0
141 2 1.0721096226008240e+00 1.1586698425383741e+00 6.0951992419079284e+00 0 0 0
142 2 3.6585289268170240e+00 1.1746963152961101e+00 7.3355133843740905e+00 0 0 0
143 2 2.3632849607875928e+00 3.1777350215997506e+00 6.7206431062125320e+00 0 0 0
440 2 2.0371707265823658e-01 3.1681978791480221e+00 7.9113849401265828e+00 0 0 0
146 2 6.2398369380617229e+00 1.2063302770526774e+00 8.5416702967316382e+00 0 0 0
147 2 5.8121327977987738e+00 1.2000282352342180e+00 6.1111831587636969e+00 0 0 0
148 2 4.5181871886821003e+00 3.2028815898428045e+00 5.5110226746069921e+00 0 0 0
149 2 7.0910747850742872e+00 3.2402862545511555e+00 6.7210430386500839e+00 0 0 0
151 2 4.9415489853903374e+00 3.2057858128093595e+00 7.9435221462777692e+00 0 0 0
145 2 7.9622032111776351e+00 1.2354769648883166e+00 4.8861807801530404e+00 0 0 0
152 2 8.3918910264794260e+00 1.2436872969857802e+00 7.3188434086485650e+00 0 0 0
153 2 1.0975744742075390e+01 1.2990993369754802e+00 8.5291394947885451e+00 0 0 0
154 2 1.0540620965461471e+01 1.2890948081090854e+00 6.0970665430276769e+00 0 0 0
155 2 9.2359619215387330e+00 3.2831985750051600e+00 5.4976979576864391e+00 0 0 0
157 2 9.6676016258131412e+00 3.2923565744133141e+00 7.9299761858516300e+00 0 0 0
158 2 1.2688349037056772e+01 1.3402407253323909e+00 4.8764401994923130e+00 0 0 0
159 2 1.3120393172758641e+01 1.3510648709690882e+00 7.3099350322670000e+00 0 0 0
161 2 1.1809022370691412e+01 3.3428599928417428e+00 6.7086363777471600e+00 0 0 0
162 2 1.3951446662605619e+01 3.3966374389928315e+00 5.4884721291108933e+00 0 0 0
163 2 1.4381356020276781e+01 3.4078845216774294e+00 7.9227988210635596e+00 0 0 0
160 2 1.5266993638859176e+01 1.4061549122888906e+00 6.0913011111954400e+00 0 0 0
164 2 1.7415119912557419e+01 1.4627771898621800e+00 4.8736217554843595e+00 0 0 0
165 2 1.5697062500830395e+01 1.4174147288748853e+00 8.5261859787309326e+00 0 0 0
166 2 1.7845270831725003e+01 1.4742250223020295e+00 7.3086553210317131e+00 0 0 0
167 2 1.6525366186739401e+01 3.4633183674621373e+00 6.7045619949625594e+00 0 0 0
169 2 1.8671675294057497e+01 3.5193753723336685e+00 5.4875571800151191e+00 0 0 0
171 2 3.2221131591378880e+00 5.1995672967307973e+00 4.8949346001577192e+00 0 0 0
172 2 1.4962930184046974e+00 5.1806440640395772e+00 8.5381684174813639e+00 0 0 0
173 2 1.0699722199767137e+00 5.1805599629487640e+00 6.0987611085499225e+00 0 0 0
174 2 3.6479979770044721e+00 5.2028695968951535e+00 7.3326524579012942e+00 0 0 0
175 2 2.3559376502456084e+00 7.1989107356502640e+00 6.7174206087453481e+00 0 0 0
441 2 2.0857862172155245e-01 7.1866316309996474e+00 7.9219098046176830e+00 0 0 0
178 2 6.2235877214307234e+00 5.2427530591234346e+00 8.5521846217002508e+00 0 0 0
179 2 5.7954791995224975e+00 5.2377277040561259e+00 6.1192716023456146e+00 0 0 0
180 2 4.4999521464153078e+00 7.2307021482417850e+00 5.5091833376249610e+00 0 0 0
181 2 7.0634882483762391e+00 7.2829592821247413e+00 6.7285371207980260e+00 0 0 0
183 2 4.9269159285851138e+00 7.2362944653827936e+00 7.9450545524488554e+00 0 0 0
177 2 7.9363956846373949e+00 5.2798766996888693e+00 4.8977952378931828e+00 0 0 0
184 2 8.3634931649973669e+00 5.2874397985273802e+00 7.3308941297859045e+00 0 0 0
185 2 1.0929507843053512e+01 5.3481265531912205e+00 8.5417385126326657e+00 0 0 0
186 2 1.0500784245282921e+01 5.3375290791133390e+00 6.1082501048187581e+00 0 0 0
187 2 9.1955412290345926e+00 7.3346053744315949e+00 5.5070609773471020e+00 0 0 0
190 2 9.6212838267134337e+00 7.3442905622345087e+00 7.9407362857433412e+00 0 0 0
188 2 1.1753222032888191e+01 7.3979646761850768e+00 6.7199287507560026e+00 0 0 0
191 2 1.2638317125075803e+01 5.3905079879515929e+00 4.8868588548606002e+00 0 0 0
192 2 1.3066767909214240e+01 5.4013586197229246e+00 7.3209678448341720e+00 0 0 0
194 2 1.3887898234689874e+01 7.4512631230557611e+00 5.5013600661558302e+00 0 0 0
195 2 1.4315654031905211e+01 7.4619408284807376e+00 7.9362453268795914e+00 0 0 0
193 2 1.5206449117200398e+01 5.4555375267045063e+00 6.1021547474784112e+00 0 0 0
196 2 1.7349069918275195e+01 5.5100127123147873e+00 4.8850224029825569e+00 0 0 0
197 2 1.5635340304468397e+01 5.4666358934930743e+00 8.5370069147336913e+00 0 0 0
198 2 1.7778290189453632e+01 5.5210478246642012e+00 7.3201753245192922e+00 0 0 0
199 2 1.6454526354088451e+01 7.5146108628300183e+00 6.7201063785889232e+00 0 0 0
201 2 1.8597170997551689e+01 7.5670729042209040e+00 5.5050729129604461e+00 0 0 0
203 2 3.2066168530815817e+00 9.2206811411791687e+00 4.8978028836444372e+00 0 0 0
204 2 1.4955219498373944e+00 9.1974244716334823e+00 8.5411756975233857e+00 0 0 0
205 2 1.0666341682979850e+00 9.1951413400790827e+00 6.1029744871353673e+00 0 0 0
206 2 3.6335315973878490e+00 9.2273922193081610e+00 7.3346571871417430e+00 0 0 0
207 2 2.3435753134052737e+00 1.1215277411925518e+01 6.7229428549282533e+00 0 0 0
442 2 2.0885425517034562e-01 1.1191872668066278e+01 7.9237438315972470e+00 0 0 0
210 2 6.1889439929483112e+00 9.2851951836340536e+00 8.5561282581597133e+00 0 0 0
211 2 5.7645567086544967e+00 9.2755432952096069e+00 6.1213098267026336e+00 0 0 0
212 2 4.4671917512202208e+00 1.1264891955830198e+01 5.5119358571020864e+00 0 0 0
213 2 7.0061109571487608e+00 1.1338807687894098e+01 6.7306304317966053e+00 0 0 0
215 2 4.8900892807400123e+00 1.1276631478944735e+01 7.9471736759650105e+00 0 0 0
209 2 7.8907754379188884e+00 9.3320995117383632e+00 4.9033152268911522e+00 0 0 0
216 2 8.3142826039697511e+00 9.3417317664461681e+00 7.3374458953169386e+00 0 0 0
217 2 1.0864903962240724e+01 9.4077990510961982e+00 8.5531251298039042e+00 0 0 0
218 2 1.0439693520665626e+01 9.3975674757567553e+00 6.1184209378253414e+00 0 0 0
219 2 9.1234954436928586e+00 1.1399231713774164e+01 5.5151527004346246e+00 0 0 0
222 2 9.5469793926028679e+00 1.1409346998039659e+01 7.9506655161282520e+00 0 0 0
220 2 1.1670722440450140e+01 1.1462808053630617e+01 6.7384502744713108e+00 0 0 0
223 2 1.2568550978817361e+01 9.4506359382104517e+00 4.9016113199484739e+00 0 0 0
224 2 1.2994684536490542e+01 9.4606716224326171e+00 7.3369325161763213e+00 0 0 0
225 2 1.5129073314055953e+01 9.5117056997793288e+00 6.1227112191078836e+00 0 0 0
226 2 1.3800340555079604e+01 1.1512381057845618e+01 5.5279732943051743e+00 0 0 0
227 2 1.4226922630380519e+01 1.1521792112265086e+01 7.9644166903497844e+00 0 0 0
228 2 1.7267990399765278e+01 9.5618404460358235e+00 4.9095260295682221e+00 0 0 0
229 2 1.5556764084051647e+01 9.5218187977390958e+00 8.5584414663851121e+00 0 0 0
230 2 1.7696429903923690e+01 9.5718566521146631e+00 7.3453866015133782e+00 0 0 0
231 2 1.6362943410544656e+01 1.1569410902742311e+01 6.7545343776731208e+00 0 0 0
233 2 1.8503710212132198e+01 1.1616496890235132e+01 5.5441108354118809e+00 0 0 0
234 2 1.8932473535791228e+01 1.1625933758570866e+01 7.9803983488353785e+00 0 0 0
235 2 3.1716719367517014e+00 1.3249660942434435e+01 4.8993011948313123e+00 0 0 0
236 2 1.4811961131322982e+00 1.3205413617907128e+01 8.5440670611817513e+00 0 0 0
237 2 1.0571548404999014e+00 1.3197086252132856e+01 6.1061290769322341e+00 0 0 0
238 2 3.5919749864667381e+00 1.3264676219541245e+01 7.3346891286900409e+00 0 0 0
239 2 2.2915449029575994e+00 1.5245367962495411e+01 6.7126469025148845e+00 0 0 0
443 2 1.9788919528904628e-01 1.5179854595073724e+01 7.9204806330672302e+00 0 0 0
242 2 6.1156684803262236e+00 1.3348770222114094e+01 8.5561672371506834e+00 0 0 0
243 2 5.6951034487074041e+00 1.3335339354564567e+01 6.1205626222054663e+00 0 0 0
244 2 4.3774991366877325e+00 1.5330370543488803e+01 5.5049666712011129e+00 0 0 0
245 2 6.8893219149978986e+00 1.5419369476659551e+01 6.7405610240101641e+00 0 0 0
247 2 4.7950130361199497e+00 1.5347082428764974e+01 7.9415745505322892e+00 0 0 0
241 2 7.8011502422032715e+00 1.3402116572263303e+01 4.9093380904223380e+00 0 0 0
248 2 8.2235007985813109e+00 1.3413071814151342e+01 7.3462264187072615e+00 0 0 0
249 2 1.0764951670464797e+01 1.3477044119131548e+01 8.5782207323908857e+00 0 0 0
250 2 1.0340505206303943e+01 1.3467852846830738e+01 6.1407189301755309e+00 0 0 0
251 2 8.9988436053805252e+00 1.5475256753156462e+01 5.5455460834998620e+00 0 0 0
254 2 9.4229894924812463e+00 1.5484206815398059e+01 7.9850072042126827e+00 0 0 0
252 2 1.1545577308634211e+01 1.5530431055909224e+01 6.7892175580682315e+00 0 0 0
255 2 1.2465514607022021e+01 1.3516167047834811e+01 4.9363949912077274e+00 0 0 0
256 2 1.2891257386806920e+01 1.3524938091036164e+01 7.3739406425898730e+00 0 0 0
258 2 1.5023933198083386e+01 1.3570076799144903e+01 6.1688159133573750e+00 0 0 0
259 2 1.3676024549037098e+01 1.5572956189297090e+01 5.5902645982730723e+00 0 0 0
260 2 1.4102826544149895e+01 1.5581018151102189e+01 8.0285730866916154e+00 0 0 0
257 2 1.5451126028842269e+01 1.3578823481245186e+01 8.6061049730026475e+00 0 0 0
261 2 1.7161917512412220e+01 1.3614253742406129e+01 4.9620873950481563e+00 0 0 0
262 2 1.7590071238135646e+01 1.3623005462063476e+01 7.3990238525803536e+00 0 0 0
263 2 1.6240209746508153e+01 1.5622326378213382e+01 6.8255392385944402e+00 0 0 0
265 2 1.8382162767092023e+01 1.5663623761988342e+01 5.6194270138506024e+00 0 0 0
266 2 1.8810977199234294e+01 1.5671908148597792e+01 8.0564021849652132e+00 0 0 0
267 2 3.0424419244462966e+00 1.7318757650079135e+01 4.8756471859449366e+00 0 0 0
268 2 9.8219344037264689e-01 1.7214605353638539e+01 6.0716695686637410e+00 0 0 0
269 2 3.4547431287195685e+00 1.7341175604935845e+01 7.3149000785696137e+00 0 0 0
270 2 2.0577342954350559e+00 1.9311795020667763e+01 6.6505400926464171e+00 0 0 0
409 2 1.3920351144997276e+00 1.7233725118543290e+01 8.5041786177391643e+00 0 0 0
444 2 1.0218440821202317e-01 1.9263548996916445e+01 7.8836263325502776e+00 0 0 0
273 2 5.9549025285061186e+00 1.7439103945023827e+01 8.5795857446271100e+00 0 0 0
274 2 5.5327695427441732e+00 1.7428000772941282e+01 6.1366401855595205e+00 0 0 0
275 2 4.1182911459615203e+00 1.9432075020390080e+01 5.5526655315210673e+00 0 0 0
276 2 6.6543206409191971e+00 1.9497053519562492e+01 6.8523112303591143e+00 0 0 0
278 2 4.5443861269800179e+00 1.9443964979459885e+01 8.0038807949586683e+00 0 0 0
272 2 7.6358857898925043e+00 1.7484347279797845e+01 4.9600228846762056e+00 0 0 0
279 2 8.0608731517759811e+00 1.7492888655593092e+01 7.4020467498357325e+00 0 0 0
280 2 1.0608244863657125e+01 1.7544112256147326e+01 8.6572316407111902e+00 0 0 0
281 2 1.0182200080069222e+01 1.7536440607486906e+01 6.2167459949282993e+00 0 0 0
282 2 8.7849826337445833e+00 1.9537747151017445e+01 5.6726897803639798e+00 0 0 0
283 2 1.1355284426381406e+01 1.9582619901805863e+01 6.9181409535086429e+00 0 0 0
284 2 1.0925692785941598e+01 1.9575100196684925e+01 4.4794810653698018e+00 0 0 0
285 2 9.2140143291601380e+00 1.9545262122869140e+01 8.1131717078330379e+00 0 0 0
286 2 1.2313369875931160e+01 1.7576066616586907e+01 5.0238361367339452e+00 0 0 0
287 2 1.2740672818136916e+01 1.7583649336970353e+01 7.4629572989541710e+00 0 0 0
289 2 1.4879136357240750e+01 1.7622242887018032e+01 6.2629616582835901e+00 0 0 0
290 2 1.3501056061645839e+01 1.9619483605675882e+01 5.7162225484072131e+00 0 0 0
291 2 1.3930463397749573e+01 1.9626887547376992e+01 8.1538802715158027e+00 0 0 0
288 2 1.5307188848141230e+01 1.7629871328943199e+01 8.7010015655198050e+00 0 0 0
292 2 1.7021858087772387e+01 1.7660989280775659e+01 5.0587015163804354e+00 0 0 0
293 2 1.7450719641469853e+01 1.7668760468793216e+01 7.4960038114442735e+00 0 0 0
294 2 1.6079018664501614e+01 1.9664284023606648e+01 6.9471220240038249e+00 0 0 0
295 2 1.5649203777249227e+01 1.9656738798761523e+01 4.5101251635362907e+00 0 0 0
296 2 1.8228868839603070e+01 1.9702385350932715e+01 5.7379274934949800e+00 0 0 0
297 2 1.8658834190354103e+01 1.9710078147498066e+01 8.1744374471511421e+00 0 0 0
298 2 1.9153498410603120e+00 1.1620403637737113e+00 1.1005853467697278e+01 0 0 0
300 2 6.1618006055990404e-01 3.1668917904681559e+00 1.0348894572234855e+01 0 0 0
301 2 3.2445247011910285e+00 3.1824736214787364e+00 1.1598383192322800e+01 0 0 0
302 2 2.7864733208369925e+00 3.1785992571613599e+00 9.1636616483755748e+00 0 0 0
303 2 1.0721832379915619e+00 3.1275787762054339e+00 1.2793674238292942e+01 0 0 0
299 2 4.0800147397056845e+00 1.1787565246872689e+00 9.7662647837324545e+00 0 0 0
304 2 4.5899808401022808e+00 1.1846828175460673e+00 1.2166020562455914e+01 0 0 0
305 2 6.7010726676580754e+00 1.2136730771532516e+00 1.0962211113610524e+01 0 0 0
306 2 5.3830123819887454e+00 3.2101091955212895e+00 1.0371824374491446e+01 0 0 0
308 2 7.5259107518539281e+00 3.2474465420873138e+00 9.1514021932712026e+00 0 0 0
309 2 5.8271647798020796e+00 3.2271638128696716e+00 1.2806537157058521e+01 0 0 0
307 2 7.9619871761054304e+00 3.2593390948770500e+00 1.1584507293211654e+01 0 0 0
310 2 9.2602368460913489e+00 1.2610696752886834e+00 1.2185093257211095e+01 0 0 0
311 2 8.8344123947342403e+00 1.2524880810684822e+00 9.7476104043662470e+00 0 0 0
313 2 1.0099955762954306e+01 3.3034093691583504e+00 1.0363362351400914e+01 0 0 0
314 2 1.0526425288696759e+01 3.3131610248310888e+00 1.2798775632916289e+01 0 0 0
312 2 1.1404758129272654e+01 1.3090548266748407e+00 1.0964565044422967e+01 0 0 0
315 2 1.3978488187834124e+01 1.3727229436754766e+00 1.2180133043234807e+01 0 0 0
316 2 1.3550249226053134e+01 1.3618727165295428e+00 9.7448257658793267e+00 0 0 0
317 2 1.2667570374014081e+01 3.3646290179086833e+00 1.1577483341831597e+01 0 0 0
318 2 1.2239651461642875e+01 3.3539706478352596e+00 9.1424957652550152e+00 0 0 0
319 2 1.4810080286757099e+01 3.4189528777829268e+00 1.0357771527427420e+01 0 0 0
320 2 1.5238083979235375e+01 3.4298718368756602e+00 1.2792889911269285e+01 0 0 0
321 2 1.6126210659988129e+01 1.4286581825384725e+00 1.0961418315951905e+01 0 0 0
322 2 1.8704492372752519e+01 1.4970641350527036e+00 1.2179193680816082e+01 0 0 0
323 2 1.8274953971305269e+01 1.4856448859511164e+00 9.7439217853093503e+00 0 0 0
324 2 1.7383458553821061e+01 3.4856917806121945e+00 1.1574919208953316e+01 0 0 0
325 2 1.6954625815237986e+01 3.4745578575421949e+00 9.1396639042312771e+00 0 0 0
326 2 1.9285797853703412e+00 5.1712174701462246e+00 1.0975706277830314e+01 0 0 0
328 2 6.4058100471966795e-01 7.1833645805567707e+00 1.0360448976736746e+01 0 0 0
329 2 3.2118801358002629e+00 7.2044153288119643e+00 1.1590134909400650e+01 0 0 0
330 2 2.7847987305470503e+00 7.2006511293262889e+00 9.1545871277124427e+00 0 0 0
331 2 1.0684278457044258e+00 7.1856743938461198e+00 1.2797029552366810e+01 0 0 0
327 2 4.0789714442156120e+00 5.2052747265111554e+00 9.7687504189416696e+00 0 0 0
332 2 4.5140367688721268e+00 5.2186828565216592e+00 1.2204928930746462e+01 0 0 0
333 2 6.6553202521852661e+00 5.2525477501225586e+00 1.0985326704389996e+01 0 0 0
334 2 5.3544198244538048e+00 7.2441267494788679e+00 1.0380357728408637e+01 0 0 0
336 2 7.4895440623379148e+00 7.2918365111840391e+00 9.1621128254838329e+00 0 0 0
337 2 5.7843635138029885e+00 7.2575035275648183e+00 1.2816055294774536e+01 0 0 0
335 2 7.9176358950281580e+00 7.3035110100828700e+00 1.1595915799610761e+01 0 0 0
338 2 9.2236493370099222e+00 5.3095702109883156e+00 1.2197609367643606e+01 0 0 0
339 2 8.7931533466511151e+00 5.2975439805243285e+00 9.7638035522693478e+00 0 0 0
340 2 1.1358606005776149e+01 5.3595664876475384e+00 1.0975742892120048e+01 0 0 0
341 2 1.0048571492158235e+01 7.3554646539947841e+00 1.0374483712609477e+01 0 0 0
342 2 1.0476345550633237e+01 7.3673311225419553e+00 1.2808774634126999e+01 0 0 0
343 2 1.3923082157008855e+01 5.4233581085863474e+00 1.2190380027195015e+01 0 0 0
344 2 1.3495531943026085e+01 5.4125682701526809e+00 9.7554134898903122e+00 0 0 0
345 2 1.2608217901436063e+01 7.4199928173897307e+00 1.1588943954072860e+01 0 0 0
346 2 1.2180565885514545e+01 7.4088229597939401e+00 9.1542607235558222e+00 0 0 0
347 2 1.4743682555565716e+01 7.4727423404829070e+00 1.0371357341657728e+01 0 0 0
348 2 1.5171168713224146e+01 7.4832646026829508e+00 1.2806743459358772e+01 0 0 0
349 2 1.6063695691181504e+01 5.4775336124395890e+00 1.0972189280824058e+01 0 0 0
350 2 1.8636180629341332e+01 5.5428362286453901e+00 1.2190937315464792e+01 0 0 0
351 2 1.8207315470290460e+01 5.5319904203396861e+00 9.7555219290315573e+00 0 0 0
352 2 1.7311449392258051e+01 7.5357382696551021e+00 1.1591076028577223e+01 0 0 0
353 2 1.6883096533702634e+01 7.5252443510323808e+00 9.1555066597838444e+00 0 0 0
354 2 1.9232334063680281e+00 9.2007753591789250e+00 1.0978692064771618e+01 0 0 0
356 2 6.3655699467940319e-01 1.1193848941754240e+01 1.0362731384552164e+01 0 0 0
357 2 3.1935007143517713e+00 1.1232005471563006e+01 1.1596395347159181e+01 0 0 0
358 2 2.7689083479530172e+00 1.1223237528770632e+01 9.1599088944655591e+00 0 0 0
359 2 1.0633458022878481e+00 1.1197447057844679e+01 1.2801460651650661e+01 0 0 0
355 2 4.0594424533252029e+00 9.2345635794264886e+00 9.7706817874182885e+00 0 0 0