LAMMPS data file via write_data, version 11 Aug 2017, timestep = 1000

3529 atoms
2 atom types

0.0000000000000000e+00 9.7916811248811001e+01 xlo xhi
0.0000000000000000e+00 5.6532297332691002e+01 ylo yhi
0.0000000000000000e+00 7.4183187028070003e+00 zlo zhi

Masses

1 12.0107
2 55.845

Atoms # atomic

1 2 2.6169296970817149e+00 8.0045071874131224e-01 6.3050529968412017e-01 0 0 0
2 2 1.1743718937665382e+00 2.7704519566675545e+00 2.0699682674153701e+00 0 0 0
3 2 3.5226685109985469e+00 2.8820091751906016e+00 1.2866676166492441e+00 0 0 0
4 2 2.3393954338282192e+00 7.8357222912528679e-01 2.9742813857770152e+00 0 0 0
82 2 3.4823821435458049e+00 2.8319996455543155e+00 3.7504583170068364e+00 0 0 0
3529 1 1.1622974072153156e+00 7.5408578531690595e-01 7.0062686160598018e+00 0 0 -1
5 2 4.6831122760247164e+00 8.3920735051978346e-01 2.0879198343573924e+00 0 0 0
6 2 6.9940699151542649e+00 9.1272223220586379e-01 1.2308684687634257e+00 0 0 0
7 2 5.8152186511312616e+00 2.9086698466038410e+00 4.1962012310115993e-01 0 0 0
9 2 5.7980104756797513e+00 2.9066282057737935e+00 2.8940301244096460e+00 0 0 0
87 2 6.9844159657103519e+00 9.1291797563961596e-01 3.7043946457566159e+00 0 0 0
8 2 8.1099145208708681e+00 2.9851900498736725e+00 2.0523487380349232e+00 0 0 0
10 2 9.3136509206978175e+00 9.9937373170478117e-01 3.9700836020967378e-01 0 0 0
11 2 1.1634043969782601e+01 1.0900925435493192e+00 2.0432041204262887e+00 0 0 0
12 2 1.0424321495746328e+01 3.0718321336406165e+00 1.2229812605435846e+00 0 0 0
13 2 9.3089825594656102e+00 9.9937885200431753e-01 2.8697989980325778e+00 0 0 0
94 2 1.0425248350318414e+01 3.0713392290588106e+00 3.6950347443218203e+00 0 0 0
14 2 1.3961046089610825e+01 1.1812869249660269e+00 1.2214964584511756e+00 0 0 0
15 2 1.2742915019710635e+01 3.1597436341125675e+00 4.0149490032370166e-01 0 0 0
16 2 1.5065615356427807e+01 3.2476128054042088e+00 2.0567602497777617e+00 0 0 0
17 2 1.2743198650333964e+01 3.1595132051568506e+00 2.8739983131238076e+00 0 0 0
98 2 1.3962397608640323e+01 1.1813408364387021e+00 3.6939131055081482e+00 0 0 0
18 2 1.6289952866037584e+01 1.2715769783996211e+00 4.0234267971140414e-01 0 0 0
19 2 1.8620461814050358e+01 1.3607891566172761e+00 2.0569255120759147e+00 0 0 0
20 2 1.7391408238739452e+01 3.3353084703638451e+00 1.2408490194292248e+00 0 0 0
22 2 1.6290428753257260e+01 1.2715967077458477e+00 2.8749827174173452e+00 0 0 0
104 2 1.7391549179641490e+01 3.3353563096502055e+00 3.7136098026531519e+00 0 0 0
24 2 2.2993843161842116e+00 4.7983722552410217e+00 4.1358619029678173e-01 0 0 0
25 2 2.2377688704174323e+00 8.8498291469275028e+00 3.7986608576504322e-01 0 0 0
26 2 1.1323893790294695e+00 6.7825978077665585e+00 2.0558438182138463e+00 0 0 0
28 2 3.4215728773761058e+00 6.8693062465694261e+00 1.2247409416617259e+00 0 0 0
29 2 2.3081501556914432e+00 4.8097994308794041e+00 2.8929874693840292e+00 0 0 0
30 2 2.2383518868031134e+00 8.8483851864942817e+00 2.8525652849692520e+00 0 0 0
111 2 3.4270827282749714e+00 6.8706876923688949e+00 3.7000889790208307e+00 0 0 0
27 2 4.5055319207600979e+00 8.9567059135337903e+00 2.0308772898707272e+00 0 0 0
31 2 4.6237130372748014e+00 4.9106571814947975e+00 2.0772480584884607e+00 0 0 0
32 2 6.9173214847785252e+00 4.9794593349607936e+00 1.2323432064712585e+00 0 0 0
33 2 5.7134700306306474e+00 6.9691423589282806e+00 4.0292721423367206e-01 0 0 0
35 2 6.7860496467834039e+00 9.0509321920106149e+00 1.2253642533190907e+00 0 0 0
36 2 5.7176552189626220e+00 6.9742607120194924e+00 2.8777703327442432e+00 0 0 0
118 2 6.9140216322192867e+00 4.9768204377038563e+00 3.7053825389383959e+00 0 0 0
120 2 6.7873478468445629e+00 9.0526725755349915e+00 3.6988290090250158e+00 0 0 0
34 2 8.0074890022962446e+00 7.0551299503255240e+00 2.0529488458686003e+00 0 0 0
37 2 9.2179836674828355e+00 5.0610252730714542e+00 4.0247032071770206e-01 0 0 0
38 2 1.1525911790749523e+01 5.1438574597146198e+00 2.0552059948881070e+00 0 0 0
39 2 1.0306911848503040e+01 7.1344240494375573e+00 1.2376743044531748e+00 0 0 0
40 2 9.2164869876818987e+00 5.0598582881592602e+00 2.8752824010698776e+00 0 0 0
60 2 9.0778014568841972e+00 9.1287077769040224e+00 4.2241572465233762e-01 0 0 0
61 2 1.1379820614649622e+01 9.2040371565538397e+00 2.0918749200125246e+00 0 0 0
65 2 9.0784904907177193e+00 9.1293516425900538e+00 2.8953386885984695e+00 0 0 0
127 2 1.0306180286100259e+01 7.1339671651726659e+00 3.7104830660811872e+00 0 0 0
41 2 1.3841432522903350e+01 5.2282639710985190e+00 1.2401256587356952e+00 0 0 0
42 2 1.2614740903529517e+01 7.2140215459271912e+00 4.2674173642748370e-01 0 0 0
43 2 1.4929195850271327e+01 7.2946708716674635e+00 2.0895964989985298e+00 0 0 0
44 2 1.2614437956394976e+01 7.2138096888920940e+00 2.8995467995634345e+00 0 0 0
68 2 1.3689418729230555e+01 9.2800097348846471e+00 1.2865729544444391e+00 0 0 0
131 2 1.3841432545512573e+01 5.2282211285886149e+00 3.7128442237824104e+00 0 0 0
45 2 1.6161901761294530e+01 5.3130929732797449e+00 4.2674897820490387e-01 0 0 0
46 2 1.8486255998688634e+01 5.3982732744088828e+00 2.0858365373683525e+00 0 0 0
47 2 1.7249146108789621e+01 7.3767241039839853e+00 1.2787185950379452e+00 0 0 0
48 2 1.9573251299117018e+01 7.4598043481975642e+00 4.6590530467505720e-01 0 0 0
49 2 1.6161895791882838e+01 5.3130699651904312e+00 2.8994999195354589e+00 0 0 0
50 2 1.9573242116079932e+01 7.4598018363952576e+00 2.9386754985302548e+00 0 0 0
67 2 1.6005474386810914e+01 9.3580367964101558e+00 4.7867495741181032e-01 0 0 0
73 2 1.6005407408340194e+01 9.3580013411741145e+00 2.9514563022053562e+00 0 0 0
51 2 2.0124385569892893e+00 1.2918965837187667e+01 2.6633814675733203e-01 0 0 0
52 2 1.0439549050614894e+00 1.0820941134603279e+01 1.9853158732138727e+00 0 0 0
54 2 3.2836258838896009e+00 1.0947653458970393e+01 1.1753705295111891e+00 0 0 0
55 2 2.0124233845953392e+00 1.2918602405460939e+01 2.7390758065325884e+00 0 0 0
144 2 3.2837508160624167e+00 1.0947219224648247e+01 3.6480909665235557e+00 0 0 0
53 2 4.2494023663495160e+00 1.3046207019415984e+01 2.0604782668942008e+00 0 0 0
56 2 5.5447799400705406e+00 1.1048179574096382e+01 3.9535731606859081e-01 0 0 0
57 2 7.8292587926614035e+00 1.1125666741439199e+01 2.0874098670525703e+00 0 0 0
58 2 6.5332523054857150e+00 1.3117651098272443e+01 1.3079666606542879e+00 0 0 0
59 2 5.5449449946246290e+00 1.1048616321443916e+01 2.8681391069855962e+00 0 0 0
62 2 8.8392954863975532e+00 1.3184423362293671e+01 5.2268241578985875e-01 0 0 0
63 2 1.1155853178338216e+01 1.3252000970408284e+01 2.1951465840437536e+00 0 0 0
64 2 1.0127295746954131e+01 1.1196076904456365e+01 1.2952296161024832e+00 0 0 0
66 2 8.8393718521932705e+00 1.3184572337957372e+01 2.9954579495073852e+00 0 0 0
69 2 1.2435308982119576e+01 1.1267219810269259e+01 4.9496289312731523e-01 0 0 0
71 2 1.4750499443267525e+01 1.1341054659085509e+01 2.1618626114070114e+00 0 0 0
72 2 1.3477606266975416e+01 1.3322648817620719e+01 1.3869265307290273e+00 0 0 0
74 2 1.2435434560779242e+01 1.1267304560973054e+01 2.9677513965050539e+00 0 0 0
70 2 1.5802308157164410e+01 1.3396742377312385e+01 5.7427185875560638e-01 0 0 0
75 2 1.5802335402628964e+01 1.3396761525529570e+01 3.0470475979646157e+00 0 0 0
76 2 1.8326508438402886e+01 9.4379898082924640e+00 2.1407032940505180e+00 0 0 0
77 2 1.8128882281470741e+01 1.3473735540785507e+01 2.2317609175803148e+00 0 0 0
78 2 1.7070708755813907e+01 1.1417668282190064e+01 1.3518755909874545e+00 0 0 0
79 2 1.9394701599912668e+01 1.1496581647200035e+01 5.3872456673307478e-01 0 0 0
80 2 1.9394689016493295e+01 1.1496574716259037e+01 3.0114991721745530e+00 0 0 0
81 2 1.1392910705902699e+00 2.7682187402532183e+00 4.5317078363823580e+00 0 0 0
83 2 2.3132992058707975e+00 7.8133811843131917e-01 5.4191021012203642e+00 0 0 0
84 2 1.1596414128551766e+00 2.7295536741955204e+00 7.0109385979469829e+00 0 0 0
85 2 3.5010786576189306e+00 2.8248815336849304e+00 6.2188988877987521e+00 0 0 0
86 2 4.6539707604471463e+00 8.3696137746049293e-01 4.5523839484216335e+00 0 0 0
89 2 4.7327304344447239e+00 8.3839091518356501e-01 7.0040847865077058e+00 0 0 0
90 2 7.0134664309496708e+00 9.1347887486000012e-01 6.1704853712367536e+00 0 0 0
91 2 5.8052405382365135e+00 2.8998224705558662e+00 5.3630267082458429e+00 0 0 0
88 2 8.1127086180253336e+00 2.9842253222138289e+00 4.5233727833370523e+00 0 0 0
92 2 8.1172087042682239e+00 2.9867450049314983e+00 6.9966815861526737e+00 0 0 0
93 2 1.1637836868369750e+01 1.0902548864682762e+00 4.5150161455347222e+00 0 0 0
95 2 9.3195804887659754e+00 9.9976734929425382e-01 5.3400690634454158e+00 0 0 0
96 2 1.1636050649535383e+01 1.0901442759467366e+00 6.9886378453009002e+00 0 0 0
97 2 1.0427181951797330e+01 3.0723781362099776e+00 6.1678961677784585e+00 0 0 0
99 2 1.5065958513442164e+01 3.2477470307828509e+00 4.5295172293380803e+00 0 0 0
100 2 1.3961885412172853e+01 1.1813115066089945e+00 6.1669729254495795e+00 0 0 0
101 2 1.2744016803220440e+01 3.1598961793106852e+00 5.3467665718828385e+00 0 0 0
102 2 1.5065544628378632e+01 3.2477071980874159e+00 7.0024050981198345e+00 0 0 0
103 2 1.8620431574873301e+01 1.3607866893214910e+00 4.5297298573559797e+00 0 0 0
105 2 1.6290294235865527e+01 1.2715875140633945e+00 5.3478519008753400e+00 0 0 0
106 2 1.8620295964709104e+01 1.3607817940289386e+00 7.0025204234757812e+00 0 0 0
107 2 1.7391397766279105e+01 3.3353460704781508e+00 6.1864294974593159e+00 0 0 0
109 2 1.1381249250387582e+00 6.7823812651931261e+00 4.5305974380611760e+00 0 0 0
112 2 2.3058640693071100e+00 4.7938852607529805e+00 5.3656989304764569e+00 0 0 0
113 2 2.2393781720842951e+00 8.8492581204463612e+00 5.3256335312463889e+00 0 0 0
114 2 1.1350177674212139e+00 6.7836682016662859e+00 7.0023451083439863e+00 0 0 0
116 2 3.4234474246808690e+00 6.8666474186189372e+00 6.1712024385321751e+00 0 0 0
110 2 4.5069885224587649e+00 8.9572486769559081e+00 4.5044008338635573e+00 0 0 0
115 2 4.5052217094103639e+00 8.9558520069719219e+00 6.9765178969175450e+00 0 0 0
117 2 4.6143414682028823e+00 4.8900166684476609e+00 4.5454734770825196e+00 0 0 0
121 2 4.6150403773709314e+00 4.8927713331724689e+00 7.0167128353294776e+00 0 0 0
122 2 6.9140159681219053e+00 4.9753082118287404e+00 6.1771947510091083e+00 0 0 0
123 2 5.7134814225946471e+00 6.9673090059684100e+00 5.3488274368550899e+00 0 0 0
125 2 6.7856131308479632e+00 9.0502194899552499e+00 6.1710044714868761e+00 0 0 0
119 2 8.0058771882664246e+00 7.0540918045619252e+00 4.5258211850427070e+00 0 0 0
124 2 8.0056236376766883e+00 7.0536575569721913e+00 6.9981966459596192e+00 0 0 0
126 2 1.1525933906844328e+01 5.1438215679337462e+00 4.5278418199590247e+00 0 0 0
128 2 9.2166063922693215e+00 5.0598784203034395e+00 5.3477856899832608e+00 0 0 0
129 2 1.1526507911334102e+01 5.1443437226588422e+00 7.0006873786030246e+00 0 0 0
130 2 1.0306093979010877e+01 7.1340420265693529e+00 6.1831626636518289e+00 0 0 0
154 2 1.1379460667472035e+01 9.2038510755511975e+00 4.5646630048215640e+00 0 0 0
157 2 9.0777256054964361e+00 9.1289083730030534e+00 5.3681313833737532e+00 0 0 0
158 2 1.1379494317657626e+01 9.2038627517142331e+00 7.0373884905225452e+00 0 0 0
132 2 1.4929162730883119e+01 7.2946671507164513e+00 4.5623504884938804e+00 0 0 0
133 2 1.3841667638970215e+01 5.2284323402053445e+00 6.1856366909906821e+00 0 0 0
134 2 1.2614380109304435e+01 7.2138310946000246e+00 5.3722724761398588e+00 0 0 0
135 2 1.4929316432331838e+01 7.2947493361615248e+00 7.0351239341968501e+00 0 0 0
162 2 1.3689259593091965e+01 9.2799175593978607e+00 3.7593591239954227e+00 0 0 0
166 2 1.3689263562435656e+01 9.2799219535596009e+00 6.2321082396802554e+00 0 0 0
136 2 1.8486295474017460e+01 5.3983043176344019e+00 4.5586099861985439e+00 0 0 0
137 2 1.7249128122058018e+01 7.3767199934068559e+00 3.7514841238514598e+00 0 0 0
138 2 1.6161992677899438e+01 5.3131504613366873e+00 5.3722777278264893e+00 0 0 0
139 2 1.8486261207602116e+01 5.3982843165118970e+00 7.0313908163811245e+00 0 0 0
140 2 1.7249192597330644e+01 7.3767526225064213e+00 6.2242554074982150e+00 0 0 0
141 2 1.9573268595852696e+01 7.4598149571441441e+00 5.4114469982530577e+00 0 0 0
165 2 1.6005403864466942e+01 9.3579976898375197e+00 5.4242188140828373e+00 0 0 0
142 2 1.0441031028159222e+00 1.0820960670816834e+01 4.4579994035745925e+00 0 0 0
145 2 2.0123816183535324e+00 1.2918704274128439e+01 5.2118151274776920e+00 0 0 0
146 2 1.0439348444180927e+00 1.0821777621157871e+01 6.9308095401974334e+00 0 0 0
148 2 3.2839203516388844e+00 1.0947706147372783e+01 6.1209652216527157e+00 0 0 0
143 2 4.2493993893954096e+00 1.3046088917303665e+01 4.5332378695760562e+00 0 0 0
147 2 4.2495083501560993e+00 1.3046253260258606e+01 7.0060492008691027e+00 0 0 0
149 2 7.8296560950975778e+00 1.1126285162523693e+01 4.5604111284865434e+00 0 0 0
150 2 6.5333072509121362e+00 1.3117860317380689e+01 3.7807602379447571e+00 0 0 0
151 2 5.5453100390877843e+00 1.1048809981786283e+01 5.3411487655495220e+00 0 0 0
152 2 7.8290577701858579e+00 1.1125340607451301e+01 7.0329679244776022e+00 0 0 0
153 2 6.5334462298734737e+00 1.3117902503206571e+01 6.2536092186747272e+00 0 0 0
155 2 1.1155957009461876e+01 1.3252120319730610e+01 4.6679493798745595e+00 0 0 0
156 2 1.0127546515907934e+01 1.1196363084933283e+01 3.7680695516554925e+00 0 0 0
159 2 8.8395215135485259e+00 1.3184783018996674e+01 5.4683117066798754e+00 0 0 0
160 2 1.1155836267403023e+01 1.3252014120819153e+01 7.1407148542228862e+00 0 0 0
161 2 1.0127250571544085e+01 1.1196139158222611e+01 6.2408369214220993e+00 0 0 0
163 2 1.4750431727303608e+01 1.1341009427046567e+01 4.6346393335973879e+00 0 0 0
164 2 1.3477659816214933e+01 1.3322687108563052e+01 3.8597067914036720e+00 0 0 0
167 2 1.2435289618255890e+01 1.1267214840885776e+01 5.4405275351296751e+00 0 0 0
169 2 1.4750436829361696e+01 1.1341012321108600e+01 7.1074026029835213e+00 0 0 0
170 2 1.3477599802085720e+01 1.3322645486265850e+01 6.3324798461298082e+00 0 0 0
21 2 1.9394688060002750e+01 1.1496573536293685e+01 5.4842700819676704e+00 0 0 0
23 2 1.7070679107774570e+01 1.1417648823811968e+01 6.2974197933574718e+00 0 0 0
108 2 1.8128869095767676e+01 1.3473726489074684e+01 7.1773057923625556e+00 0 0 0
168 2 1.5802306485539360e+01 1.3396740198863238e+01 5.5198214402187915e+00 0 0 0
171 2 1.8326504450780746e+01 9.4379871624922913e+00 4.6134718907119350e+00 0 0 0
172 2 1.8128869194459529e+01 1.3473726685687422e+01 4.7045347824695609e+00 0 0 0
173 2 1.7070678935512280e+01 1.1417650196306772e+01 3.8246514330666312e+00 0 0 0
174 2 1.8326535620807295e+01 9.4380030109784379e+00 7.0862446583384227e+00 0 0 0
2847 2 1.0295956037836618e-02 7.5387060253703109e-01 1.1751253062353615e+00 1 0 0
175 2 2.6683297789564029e+00 1.4978534837862425e+01 1.4202570909092613e+00 0 0 0
176 2 1.3033535999278909e+00 1.6928571170335971e+01 7.3259516274696368e-01 0 0 0
177 2 7.3831921464914421e-02 1.4950702094514059e+01 2.4075025227810833e+00 0 0 0
178 2 3.7341690637814642e+00 1.7005352213909518e+01 2.3428458719419449e+00 0 0 0
179 2 1.3033472951791787e+00 1.6928554020582165e+01 3.2053663110930404e+00 0 0 0
180 2 6.1391438495150581e+00 1.7099505548723183e+01 1.5161682368546057e+00 0 0 0
181 2 5.1051698903495861e+00 1.5075164551887923e+01 6.0525129930236909e-01 0 0 0
182 2 5.1051189468798936e+00 1.5075135882971134e+01 3.0780133141803159e+00 0 0 0
183 2 7.4835195312875928e+00 1.5153116132034450e+01 2.2638590269759864e+00 0 0 0
184 2 9.8386421637246109e+00 1.5225167817867282e+01 1.4464754177451118e+00 0 0 0
185 2 8.5197295605171313e+00 1.7183271634154679e+01 6.9184999338330344e-01 0 0 0
186 2 1.0882879017250913e+01 1.7262252795963505e+01 2.3389306632701712e+00 0 0 0
187 2 8.5196946645811984e+00 1.7183235518104482e+01 3.1646088638104097e+00 0 0 0
188 2 1.3234375651642520e+01 1.7340650104638289e+01 1.5125579076546443e+00 0 0 0
189 2 1.2182496073022566e+01 1.5297431287736201e+01 6.2722477475403771e-01 0 0 0
190 2 1.5577946812666227e+01 1.7419900930596135e+01 6.8663631691671689e-01 0 0 0
191 2 1.2182504391644200e+01 1.5297430130162152e+01 3.0999891038134151e+00 0 0 0
192 2 1.4520288663524701e+01 1.5371867276076465e+01 2.2796767463737044e+00 0 0 0
193 2 1.5577948387482108e+01 1.7419901914431321e+01 3.1594078695812460e+00 0 0 0
194 2 1.6854606902972098e+01 1.5448760423826297e+01 1.4589840832211360e+00 0 0 0
195 2 1.9186824570207044e+01 1.5527596646917626e+01 6.3850296935052286e-01 0 0 0
196 2 1.7916140932950317e+01 1.7500229676006963e+01 2.3348123304292052e+00 0 0 0
197 2 1.9186830243551167e+01 1.5527600692658318e+01 3.1112764217393027e+00 0 0 0
198 2 2.4411652848961638e+00 1.8967495505985621e+01 1.5825382907986769e+00 0 0 0
199 2 1.2100212413079716e+00 2.0960228309377118e+01 7.9609156790385616e-01 0 0 0
200 2 2.3720073517962250e+00 2.2997458594173896e+01 1.6227990857615400e+00 0 0 0
201 2 4.1922874570181644e-02 1.8929264943652271e+01 2.4485348066347941e+00 0 0 0
202 2 3.5848261866088222e+00 2.1010657698828595e+01 2.4250768747120581e+00 0 0 0
203 2 1.2100221740898776e+00 2.0960225846211866e+01 3.2688648347206639e+00 0 0 0
204 2 1.2695094488577092e-02 2.2967772094760516e+01 2.4622597635536643e+00 0 0 0
205 2 5.9601989075833659e+00 2.1086917661989826e+01 1.5947153603482760e+00 0 0 0
206 2 4.8361994596213815e+00 1.9044712101538892e+01 7.4267779511105092e-01 0 0 0
207 2 4.7323535662968412e+00 2.3054889660858205e+01 7.8998070757593208e-01 0 0 0
208 2 4.8362021479748307e+00 1.9044722085145359e+01 3.2154529898791964e+00 0 0 0
209 2 7.2228941054812097e+00 1.9133263416286756e+01 2.3891755791633935e+00 0 0 0
210 2 4.7323538722411262e+00 2.3054891185129037e+01 3.2627537338613832e+00 0 0 0
211 2 7.0927887676816166e+00 2.3132925645545658e+01 2.4364934024454503e+00 0 0 0
212 2 9.5956941273415843e+00 1.9219324714335816e+01 1.5632324167342035e+00 0 0 0
213 2 8.3310255996430485e+00 2.1173833838466233e+01 7.6991136249886849e-01 0 0 0
214 2 9.4497479340680339e+00 2.3221131775563691e+01 1.6120513225385167e+00 0 0 0
215 2 1.0693088268542699e+01 2.1262245201923459e+01 2.4168827116828635e+00 0 0 0
216 2 8.3310272160034131e+00 2.1173835668445712e+01 3.2426849551318453e+00 0 0 0
217 2 1.3046387650118712e+01 2.1350127690808780e+01 1.5894357387677736e+00 0 0 0
218 2 1.1955978895280511e+01 1.9303366559440668e+01 7.3558687636526232e-01 0 0 0
219 2 1.5392433300175810e+01 2.1437136970536326e+01 7.6184585206149835e-01 0 0 0
220 2 1.1800868053260876e+01 2.3312066543999702e+01 7.8649826126895395e-01 0 0 0
221 2 1.1955964973812154e+01 1.9303346651671646e+01 3.2083546410320141e+00 0 0 0
222 2 1.4306545082473690e+01 1.9386730242114385e+01 2.3801521428984289e+00 0 0 0
223 2 1.5392430246656918e+01 2.1437133705861960e+01 3.2346181269434506e+00 0 0 0
224 2 1.1800868256018978e+01 2.3312065404719252e+01 3.2592713840086414e+00 0 0 0
246 2 1.4146214591415456e+01 2.3402620108507300e+01 2.4329767793241803e+00 0 0 0
225 2 1.6649926000181718e+01 1.9470008547169332e+01 1.5529234019598841e+00 0 0 0
226 2 1.8988044236028010e+01 1.9553300239874829e+01 7.2768420586267812e-01 0 0 0
227 2 1.7732899114173989e+01 2.1523294224936365e+01 2.4083420635548265e+00 0 0 0
228 2 1.8988044596093456e+01 1.9553300613016901e+01 3.2004568334092744e+00 0 0 0
249 2 1.6486803082982000e+01 2.3491827272229983e+01 1.6072219020558094e+00 0 0 0
229 2 1.1818154989914054e+00 2.4996960248849334e+01 8.1130879812764445e-01 0 0 0
230 2 2.3446680945711433e+00 2.7028772129544912e+01 1.6376027459707410e+00 0 0 0
231 2 3.5303338983591237e+00 2.5037121025108490e+01 2.4523545961935813e+00 0 0 0
232 2 1.1818156274670530e+00 2.4996959815265985e+01 3.2840817796491164e+00 0 0 0
233 2 5.3682394843360811e-03 2.7005575623557618e+01 2.4671771677968106e+00 0 0 0
234 2 5.8790173847571978e+00 2.5102042950526453e+01 1.6242307123239381e+00 0 0 0
235 2 4.6835860721708533e+00 2.7080743509928425e+01 8.0936813245522921e-01 0 0 0
236 2 4.6835860179674444e+00 2.7080743707524935e+01 3.2821410380633860e+00 0 0 0
237 2 7.0206474765305611e+00 2.7155058304559549e+01 2.4545171259862086e+00 0 0 0
238 2 8.2264410946453612e+00 2.5184470523327203e+01 7.9867263026291435e-01 0 0 0
239 2 9.3558386167223269e+00 2.7243014594081963e+01 1.6281889606971949e+00 0 0 0
240 2 1.1689716091379182e+01 2.7336099196585153e+01 8.0362820340012520e-01 0 0 0
241 2 1.0571009764457035e+01 2.5275398572736712e+01 2.4465868171338774e+00 0 0 0
242 2 8.2264414815041089e+00 2.5184471120958214e+01 3.2714455817571131e+00 0 0 0
243 2 1.1689716251404020e+01 2.7336099122990728e+01 3.2764011303701039e+00 0 0 0
244 2 1.2912150866234118e+01 2.5368206295170808e+01 1.6217643918763773e+00 0 0 0
245 2 1.5250246553392040e+01 2.5459960239710206e+01 7.9745915728471650e-01 0 0 0
247 2 1.5250246699796664e+01 2.5459960361987505e+01 3.2702322551045544e+00 0 0 0
248 2 1.4022716675456413e+01 2.7429241465933103e+01 2.4535190698147233e+00 0 0 0
250 2 1.8823652116883476e+01 2.3579689271516674e+01 7.8297525868504136e-01 0 0 0
251 2 1.6355053268400027e+01 2.7520706515774162e+01 1.6320102217851138e+00 0 0 0
252 2 1.8686776517671767e+01 2.7610449265779117e+01 8.1152229000801179e-01 0 0 0
253 2 1.7585867072407662e+01 2.5549978819471878e+01 2.4469959293598169e+00 0 0 0
254 2 1.8823651516583425e+01 2.3579688768956949e+01 3.2557480769806562e+00 0 0 0
255 2 1.8686776591322371e+01 2.7610449347504858e+01 3.2842952526922597e+00 0 0 0
256 2 7.3793244027154481e-02 1.4950793138531997e+01 7.3530804987398577e+00 0 0 0
257 2 3.7341561041468636e+00 1.7005325595552026e+01 7.2883871256937081e+00 0 0 0
258 2 2.6682931883602961e+00 1.4978433859556024e+01 3.8929876203048788e+00 0 0 0
259 2 7.3822697673001259e-02 1.4950790876777358e+01 4.8802272892421881e+00 0 0 0
260 2 3.7341437311513017e+00 1.7005309466225881e+01 4.8156116352246823e+00 0 0 0
261 2 2.6683064306279105e+00 1.4978488250986763e+01 6.3657498165456987e+00 0 0 0
262 2 1.3033454962293334e+00 1.6928560235191853e+01 5.6781414140536235e+00 0 0 0
263 2 7.4835989904740545e+00 1.5153212248698228e+01 7.2094447160950228e+00 0 0 0
264 2 6.1391172016781459e+00 1.7099496866024545e+01 3.9889353491688446e+00 0 0 0
265 2 6.1391221385563082e+00 1.7099487257195243e+01 6.4617071987145094e+00 0 0 0
266 2 5.1051163080770747e+00 1.5075104415495627e+01 5.5507821906861876e+00 0 0 0
267 2 7.4835478395952331e+00 1.5153204497444882e+01 4.7366473711747252e+00 0 0 0
268 2 1.0882915302126287e+01 1.7262305831045921e+01 7.2844892122024678e+00 0 0 0
269 2 9.8386756777641757e+00 1.5225232422707165e+01 3.9192512165878672e+00 0 0 0
270 2 1.0882894179609806e+01 1.7262280399652742e+01 4.8117050777107950e+00 0 0 0
271 2 9.8387319558225705e+00 1.5225305877534153e+01 6.3920548928513572e+00 0 0 0
272 2 8.5197108531492720e+00 1.7183273807244895e+01 5.6373878413572669e+00 0 0 0
273 2 1.4520285666608109e+01 1.5371865459805729e+01 7.2252257756384841e+00 0 0 0
274 2 1.3234379891082144e+01 1.7340651120143605e+01 3.9853276009110279e+00 0 0 0
275 2 1.3234396107136360e+01 1.7340670361431716e+01 6.4581063292743721e+00 0 0 0
276 2 1.2182546142878138e+01 1.5297478863732058e+01 5.5727755817285702e+00 0 0 0
277 2 1.4520310764617573e+01 1.5371883931852830e+01 4.7524533817829679e+00 0 0 0
278 2 1.5577957088511347e+01 1.7419908836271322e+01 5.6321825638575662e+00 0 0 0
279 2 1.7916140363771021e+01 1.7500228998244165e+01 7.2803587936321783e+00 0 0 0
280 2 1.6854618369321074e+01 1.5448768748861095e+01 3.9317584823011975e+00 0 0 0
281 2 1.7916145505137106e+01 1.7500233116716657e+01 4.8075860109946484e+00 0 0 0
282 2 1.6854606007499669e+01 1.5448759206413982e+01 6.4045314462550129e+00 0 0 0
283 2 1.9186824520145542e+01 1.5527596586641803e+01 5.5840495864460973e+00 0 0 0
284 2 4.1922289834950964e-02 1.8929269452110354e+01 7.3940810533988017e+00 0 0 0
285 2 3.5848257710724853e+00 2.1010654230505939e+01 7.3706225043910409e+00 0 0 0
286 2 1.2694905020413127e-02 2.2967772904891671e+01 7.4078053788743636e+00 0 0 0
287 2 2.4411655393230163e+00 1.8967486162920387e+01 4.0553112750576243e+00 0 0 0
288 2 2.3720078668831301e+00 2.2997457410640699e+01 4.0955721715890725e+00 0 0 0
289 2 4.1924830764629058e-02 1.8929269479672463e+01 4.9213080337540456e+00 0 0 0
290 2 3.5848264162793337e+00 2.1010653540109065e+01 4.8978499324650597e+00 0 0 0
291 2 2.4411651388495184e+00 1.8967488039741166e+01 6.5280835309837419e+00 0 0 0
292 2 1.2100228324355773e+00 2.0960227105690802e+01 5.7416377312731504e+00 0 0 0
293 2 1.2695401488997194e-02 2.2967772570825435e+01 4.9350326567255243e+00 0 0 0
294 2 2.3720078872446382e+00 2.2997457889932488e+01 6.5683450033352386e+00 0 0 0
295 2 7.2228876437347340e+00 1.9133257539517459e+01 7.3347191595044521e+00 0 0 0
296 2 7.0927877477554091e+00 2.3132924230730573e+01 7.3820390907217392e+00 0 0 0
297 2 5.9601993918440721e+00 2.1086921194613883e+01 4.0674891267945643e+00 0 0 0
298 2 5.9601963749861531e+00 2.1086914341822585e+01 6.5402609103799021e+00 0 0 0
299 2 4.8361934451305961e+00 1.9044704501365700e+01 5.6882231512109191e+00 0 0 0
300 2 7.2228834039792211e+00 1.9133260770803371e+01 4.8619460573196775e+00 0 0 0
301 2 4.7323538630321558e+00 2.3054889369504604e+01 5.7355267229869664e+00 0 0 0
302 2 7.0927887678054899e+00 2.3132926882502375e+01 4.9092666258507318e+00 0 0 0
303 2 1.0693086908154726e+01 2.1262247431996656e+01 7.3624276295129203e+00 0 0 0
304 2 9.5956804364111594e+00 1.9219312125068662e+01 4.0359996981474797e+00 0 0 0
305 2 9.4497482332005269e+00 2.3221132377022588e+01 4.0848243999211533e+00 0 0 0
306 2 1.0693083287280942e+01 2.1262241180347463e+01 4.8896533506792803e+00 0 0 0
307 2 9.5956884701515808e+00 1.9219328040831527e+01 6.5087754525359776e+00 0 0 0
308 2 8.3310233054106835e+00 2.1173834938404728e+01 5.7154569045542765e+00 0 0 0
309 2 9.4497469000228129e+00 2.3221132186368578e+01 6.5575969572712358e+00 0 0 0
310 2 1.4306553109096964e+01 1.9386738535379134e+01 7.3256992554316236e+00 0 0 0
311 2 1.3046382528883669e+01 2.1350120486334344e+01 4.0622065312567157e+00 0 0 0
312 2 1.3046385460149724e+01 2.1350125385013733e+01 6.5349798544986122e+00 0 0 0
313 2 1.1955971725032855e+01 1.9303358430212910e+01 5.6811282982655156e+00 0 0 0
314 2 1.4306547259057780e+01 1.9386731349951901e+01 4.8529238252114562e+00 0 0 0
315 2 1.5392431318616930e+01 2.1437134422230915e+01 5.7073906059791017e+00 0 0 0
316 2 1.1800866532265900e+01 2.3312064203339645e+01 5.7320434351440026e+00 0 0 0
340 2 1.4146213985531165e+01 2.3402619528801100e+01 7.3785219846176080e+00 0 0 0
344 2 1.4146212761414027e+01 2.3402617560024304e+01 4.9057488492630839e+00 0 0 0
317 2 1.7732900693561582e+01 2.1523295520265211e+01 7.3538880331146190e+00 0 0 0
318 2 1.6649926877245168e+01 1.9470009118489827e+01 4.0256957412012095e+00 0 0 0
319 2 1.7732899569092339e+01 2.1523294535237042e+01 4.8811147535016159e+00 0 0 0
320 2 1.6649930079315443e+01 1.9470011801788473e+01 6.4984695036397504e+00 0 0 0
321 2 1.8988046315142583e+01 1.9553301959107607e+01 5.6732301197121116e+00 0 0 0
348 2 1.6486801946059384e+01 2.3491826024833802e+01 4.0799945227187608e+00 0 0 0
351 2 1.6486802441509010e+01 2.3491826399748383e+01 6.5527672967692494e+00 0 0 0
322 2 3.5303340523217113e+00 2.5037120666094694e+01 7.3979004246429119e+00 0 0 0
323 2 5.3681808803688440e-03 2.7005575720651724e+01 7.4127229420407827e+00 0 0 0
324 2 2.3446681254959696e+00 2.7028771952175855e+01 4.1103756700112406e+00 0 0 0
325 2 3.5303340847240756e+00 2.5037120498614794e+01 4.9251275753367674e+00 0 0 0
326 2 1.1818156810869398e+00 2.4996960019172274e+01 5.7568546541323249e+00 0 0 0
327 2 5.3682482789401582e-03 2.7005575686256936e+01 4.9399500659231279e+00 0 0 0
328 2 2.3446681443400390e+00 2.7028771998224894e+01 6.5831485521720650e+00 0 0 0
329 2 7.0206475166358793e+00 2.7155058259742336e+01 7.4000629711695138e+00 0 0 0
330 2 5.8790175264943567e+00 2.5102043609010302e+01 4.0970036980268798e+00 0 0 0
331 2 5.8790174881380652e+00 2.5102042821994210e+01 6.5697766200418251e+00 0 0 0
332 2 4.6835860825443358e+00 2.7080743483715356e+01 5.7549139590248082e+00 0 0 0
333 2 7.0206475420623766e+00 2.7155058598061753e+01 4.9272900767433647e+00 0 0 0
334 2 1.0571009353134174e+01 2.5275398724380803e+01 7.3921325445758255e+00 0 0 0
335 2 9.3558387694981597e+00 2.7243014819268435e+01 4.1009618902653413e+00 0 0 0
336 2 1.0571009786289034e+01 2.5275398770193114e+01 4.9193597548888661e+00 0 0 0
337 2 8.2264414311156582e+00 2.5184471543777896e+01 5.7442186059586673e+00 0 0 0
338 2 9.3558387405552157e+00 2.7243014979481554e+01 6.5737348401956686e+00 0 0 0
339 2 1.1689716244882396e+01 2.7336099168801091e+01 5.7491740450036799e+00 0 0 0
341 2 1.4022716455238871e+01 2.7429241129165035e+01 7.3990647726206626e+00 0 0 0
342 2 1.2912150842095109e+01 2.5368205770708023e+01 4.0945373277970258e+00 0 0 0
343 2 1.2912150271550368e+01 2.5368205427939152e+01 6.5673099306679648e+00 0 0 0
345 2 1.5250246064632584e+01 2.5459959464030081e+01 5.7430048422028044e+00 0 0 0
346 2 1.4022716648666458e+01 2.7429241213905495e+01 4.9262919707572470e+00 0 0 0
347 2 1.7585866873163582e+01 2.5549978529197876e+01 7.3925415800344680e+00 0 0 0
349 2 1.6355053304513373e+01 2.7520706531755867e+01 4.1047831864825692e+00 0 0 0
350 2 1.7585866659198210e+01 2.5549978352604839e+01 4.9197687123685396e+00 0 0 0
352 2 1.8823651736265607e+01 2.3579688924297553e+01 5.7285209059317062e+00 0 0 0
353 2 1.6355053079964105e+01 2.7520706214605596e+01 6.5775559705574072e+00 0 0 0
354 2 1.8686776429478190e+01 2.7610449195404613e+01 5.7570681008408675e+00 0 0 0
356 2 1.1696363549799376e+00 2.9026441884315442e+01 8.1922148316474652e-01 0 0 0
357 2 2.3266943527098594e+00 3.1053148659686013e+01 1.6458042468923810e+00 0 0 0
358 2 3.5007319789076345e+00 2.9065586280329200e+01 2.4652142884838111e+00 0 0 0
359 2 1.1696363433947596e+00 2.9026441918662659e+01 3.2919943744137115e+00 0 0 0
530 2 2.0048528495457294e-03 3.1027673127740101e+01 2.4695927051561037e+00 0 0 0
360 2 5.8282850141877036e+00 2.9132235545816066e+01 1.6362592936874303e+00 0 0 0
361 2 4.6455803375672087e+00 3.1113234547341090e+01 8.1666925711119287e-01 0 0 0
363 2 4.6455803449440554e+00 3.1113234740186599e+01 3.2894422011504729e+00 0 0 0
364 2 6.9592179372025766e+00 3.1195455576524147e+01 2.4579062257705551e+00 0 0 0
366 2 8.1529664585129584e+00 2.9216522633737966e+01 8.0734202475701400e-01 0 0 0
367 2 9.2725040769909572e+00 3.1286254676251311e+01 1.6302667843104612e+00 0 0 0