LAMMPS data file via write_data, version 11 Aug 2017, timestep = 1000

631 atoms
2 atom types

0.0000000000000000e+00 3.7091593514034997e+01 xlo xhi
0.0000000000000000e+00 2.8266148666346002e+01 ylo yhi
0.0000000000000000e+00 6.9940579463440002e+00 zlo zhi

Masses

1 12.0107
2 55.845

Atoms # atomic

1 2 1.1508119596289981e+00 1.6289036406296560e+00 3.4453586822224946e+00 0 0 0
2 2 2.7695174241111835e+00 1.7768020279641989e+00 5.8255746726838948e+00 0 0 0
3 2 2.2061333499278346e+00 1.7286927832881998e+00 1.3824419223379543e+00 0 0 0
4 2 3.6347855359943808e+00 1.8562754521454912e+00 3.5012879059811532e+00 0 0 0
5 2 1.0271841380466333e+00 3.6063617808075552e+00 6.9248058898140394e+00 0 0 0
6 2 2.6873074549374945e+00 3.8456461996751146e+00 2.3166065256898971e+00 0 0 0
7 2 8.0540002485188966e-01 5.6658045852890879e+00 3.4443270344030554e+00 0 0 0
8 2 2.4359760104791905e+00 5.7799609960111891e+00 5.8078053493872952e+00 0 0 0
9 2 1.6166183314430436e+00 5.7160791807799241e+00 1.1215993564173088e+00 0 0 0
10 2 1.8248130996609100e+00 3.7166863545393860e+00 4.6041798547644719e+00 0 0 0
11 2 3.5005835181170823e+00 3.8582835113567833e+00 6.9744737068006755e+00 0 0 0
12 2 3.2631188836944340e+00 5.8792081140771888e+00 3.4949292567874228e+00 0 0 0
26 2 9.8497468450984407e-02 1.5282316037601833e+00 5.5085487786515737e+00 0 0 0
27 2 2.2114887747123724e-01 3.5822647316979004e+00 2.2488627689811769e+00 0 0 0
28 2 1.2897101165227204e-03 5.5862958433138914e+00 5.7632122230683160e+00 0 0 0
631 1 1.1504316307442080e+00 1.6318024778150073e+00 6.9436928864655680e+00 0 0 -1
13 2 5.2699686419416070e+00 2.0053008723442347e+00 5.8173824808475612e+00 0 0 0
14 2 4.5345197370981483e+00 1.9326492939058786e+00 1.1608300894948516e+00 0 0 0
15 2 6.1146714847662729e+00 2.0818978963723311e+00 3.4946950559905141e+00 0 0 0
16 2 6.8115996546916069e+00 4.1558404610655080e+00 4.6535160357015268e+00 0 0 0
17 2 6.9707476887688555e+00 2.1589512619609326e+00 1.1673670315734332e+00 0 0 0
18 2 5.1570979157944263e+00 4.0159186090596641e+00 2.3196911511132017e+00 0 0 0
19 2 4.9084896522824746e+00 5.9950320509476178e+00 5.8347428669611929e+00 0 0 0
20 2 4.0822590548545650e+00 5.9299910087970868e+00 1.1643640214150175e+00 0 0 0
21 2 4.3034733160463574e+00 3.9354921233484248e+00 4.6432987837843793e+00 0 0 0
22 2 5.9847348640501927e+00 4.0800900313303021e+00 6.9800217297384242e+00 0 0 0
23 2 6.5782190902500686e+00 6.1352956921701152e+00 1.1875578161429028e+00 0 0 0
24 2 5.7451426276244035e+00 6.0699487942667991e+00 3.5121597544506744e+00 0 0 0
106 2 6.1926712110242850e+00 7.4499800591201648e-02 3.2714061343417811e-02 0 1 1
107 2 7.0072193524885664e+00 1.4630700568435628e-01 4.6970281615456093e+00 0 1 0
29 2 4.5614326749683332e-01 7.6392645565375137e+00 1.4694153136605159e-02 0 0 1
30 2 2.1027272348469452e+00 7.7763300005494322e+00 2.3644333358075014e+00 0 0 0
31 2 2.2390990334966032e-01 9.6281826419838143e+00 3.5366839237986176e+00 0 0 0
32 2 1.8782902727236952e+00 9.7763506758967793e+00 5.8850899525564762e+00 0 0 0
33 2 1.0517549054680495e+00 9.7026960525104702e+00 1.2130646384807311e+00 0 0 0
34 2 1.2845384730282488e+00 7.7093246841614995e+00 4.6904218942208784e+00 0 0 0
35 2 2.9230658651728141e+00 7.8422980972470722e+00 4.5664279745975200e-02 0 0 1
36 2 2.6987005724585513e+00 9.8480844032437407e+00 3.5613268165468708e+00 0 0 0
37 2 3.5172780410186930e+00 9.9194862345345580e+00 1.2398464336692550e+00 0 0 0
38 2 3.7414144592803735e+00 7.9191578990950440e+00 4.7246939385188718e+00 0 0 0
39 2 9.0558944639039296e-02 1.1629896449564091e+01 2.3661744487873726e-02 0 0 1
40 2 1.7421877169657161e+00 1.1781096347958538e+01 2.3671280468136326e+00 0 0 0
41 2 6.5746664410011651e-03 1.3635756974466128e+01 3.4820145010827424e+00 0 0 0
42 2 1.6522590212836359e+00 1.3789229624527932e+01 5.8237701859202691e+00 0 0 0
43 2 8.2939950306842680e-01 1.3712979234336947e+01 1.1555797830750580e+00 0 0 0
44 2 9.1737363267378236e-01 1.1704961180735094e+01 4.6921968846861262e+00 0 0 0
45 2 2.5660831993189550e+00 1.1857084860223097e+01 4.2760267698811034e-02 0 0 0
46 2 2.4753127442248037e+00 1.3865451072115370e+01 3.4983344277155428e+00 0 0 0
47 2 3.2984066355308319e+00 1.3941954251860341e+01 1.1729256206798369e+00 0 0 0
48 2 3.3875303612064425e+00 1.1932052140964702e+01 4.7119351530177065e+00 0 0 0
49 2 4.5518380584774167e+00 7.9809369210736048e+00 2.4029058789747073e+00 0 0 0
50 2 4.3339242026767053e+00 9.9942952155817384e+00 5.9147067012849099e+00 0 0 0
51 2 5.3568735522433224e+00 8.0440924242115734e+00 8.6364876051410633e-02 0 0 1
52 2 6.9591502655073594e+00 8.1699406447705432e+00 2.4630926936358346e+00 0 0 0
53 2 5.1454967319266371e+00 1.0063633360550865e+01 3.5932189430610562e+00 0 0 0
54 2 6.7606851212604147e+00 1.0205628131745248e+01 5.9454422261301074e+00 0 0 0
55 2 5.9552485561907522e+00 1.0132401054374666e+01 1.2733291817744332e+00 0 0 0
56 2 6.1588678726955024e+00 8.1099943393060325e+00 4.7684759766011648e+00 0 0 0
57 2 4.2076432948889737e+00 1.2006660695502996e+01 2.3873902286446884e+00 0 0 0
58 2 4.1214731324451668e+00 1.4018155245516793e+01 5.8413006284054498e+00 0 0 0
59 2 5.0272650141796822e+00 1.2082172647003148e+01 6.3311839726394550e-02 0 0 0
60 2 6.6589316487678039e+00 1.2230900456361887e+01 2.4021265912650942e+00 0 0 0
61 2 4.9442731702502547e+00 1.4094633709168185e+01 3.5150473496982384e+00 0 0 0
64 2 5.8436380123238596e+00 1.2156860288238788e+01 4.7306045740394751e+00 0 0 0
65 2 1.5641710217654761e+00 1.5799845220619657e+01 2.2848076827407784e+00 0 0 0
66 2 1.4356101074298580e+00 1.7813446794562253e+01 5.7562848176082611e+00 0 0 0
67 2 6.2206825676081257e-01 1.7741935510940181e+01 1.0833008714064434e+00 0 0 0
68 2 7.4416042093941492e-01 1.5725227347617215e+01 4.6092848532413839e+00 0 0 0
69 2 2.3850875793047202e+00 1.5874903888988605e+01 6.9540806573134395e+00 0 0 0
70 2 2.2525820727526491e+00 1.7884976019879367e+01 3.4347808399231829e+00 0 0 0
71 2 3.0733786689092297e+00 1.7956745338042563e+01 1.1123448673277809e+00 0 0 0
72 2 3.2078604195523717e+00 1.5950035998189749e+01 4.6293135100603671e+00 0 0 0
73 2 1.2152779548460202e+00 1.9823896906038581e+01 2.2773288294486931e+00 0 0 0
74 2 4.0464833796156846e-01 1.9757515620964547e+01 4.5938758945844089e+00 0 0 0
75 2 2.0299764286623367e+00 1.9890007480749432e+01 6.9520580687045967e+00 0 0 0
76 2 2.8458704444836465e+00 1.9957629353657641e+01 4.6308288000633375e+00 0 0 0
77 2 4.0324144269415756e+00 1.6025524377568278e+01 2.3042182792811636e+00 0 0 0
78 2 3.8969476940439511e+00 1.8029283074119387e+01 5.7827576122471429e+00 0 0 0
79 2 4.8584791047121048e+00 1.6101475804614726e+01 6.9726998714788930e+00 0 0 0
80 2 6.5164984109950046e+00 1.6253399498676039e+01 2.3210823094702033e+00 0 0 0
81 2 4.7240233750664391e+00 1.8101882727849084e+01 3.4589678030811157e+00 0 0 0
82 2 6.3900790139764512e+00 1.8248887596192191e+01 5.8046634815748117e+00 0 0 0
83 2 5.5547644502783706e+00 1.8175333722039465e+01 1.1349269089454097e+00 0 0 0
84 2 5.6866068161384939e+00 1.6177227288638907e+01 4.6469969965451643e+00 0 0 0
85 2 7.3483819737237077e+00 1.6327318581027253e+01 6.9885712080674871e+00 0 0 0
86 2 7.2296890616801441e+00 1.8323736105740487e+01 3.4813053764166990e+00 0 0 0
87 2 3.6674483172312011e+00 2.0025072597924485e+01 2.3095958947752449e+00 0 0 0
88 2 4.4920091048378170e+00 2.0092431467884904e+01 6.9815857469287845e+00 0 0 0
89 2 6.1557144488856208e+00 2.0229417954438730e+01 2.3380158915998686e+00 0 0 0
90 2 5.3214829657962239e+00 2.0160300998662969e+01 4.6588317385667226e+00 0 0 0
91 2 6.9935567689175668e+00 2.0298700111500459e+01 1.7913009439581629e-02 0 0 1
62 2 6.5907706526705701e+00 1.4246427283783381e+01 5.8545799857662697e+00 0 0 0
168 2 7.4136475678426379e+00 1.4319953712078371e+01 3.5248800086617660e+00 0 0 0
63 2 5.7674801496116874e+00 1.4171471802827666e+01 1.1883306592016427e+00 0 0 0
92 2 1.2347357671136541e+00 2.7921986973285172e+01 6.9733578938510474e+00 0 0 0
93 2 2.9268161895155695e+00 2.7984545649601731e+01 2.3618539758507602e+00 0 0 0
94 2 2.0567524330971261e+00 2.7951581112608526e+01 4.6510473007601529e+00 0 0 0
96 2 1.6924447132730791e+00 2.1878206164462334e+01 3.5176054425943701e+00 0 0 0
97 2 2.5136378511276445e+00 2.1944357184014176e+01 1.1967979978407759e+00 0 0 0
98 2 1.4635187311067550e+00 2.3873576806354396e+01 4.4085481114125719e-02 0 0 0
99 2 3.1054939804439412e+00 2.4016607123209560e+01 2.3936444948484570e+00 0 0 0
100 2 1.3298771014680195e+00 2.5866975814338488e+01 3.5211331516936557e+00 0 0 0
101 2 2.9765654846490288e+00 2.6033264804865340e+01 5.8770237130463521e+00 0 0 0
102 2 2.1482998948438325e+00 2.5958659338081244e+01 1.1928972767540411e+00 0 0 0
103 2 2.2901097648321072e+00 2.3944680836308223e+01 4.7190443192619655e+00 0 0 0
108 2 3.3313651586285458e+00 2.2010455280378292e+01 5.8714494211490598e+00 0 0 0
121 2 6.3264986723525962e-01 2.3800183168537043e+01 2.3629660966070465e+00 0 0 0
124 2 4.3333872218093333e-01 2.7805575131875091e+01 2.3040650828584255e+00 0 0 0
125 2 8.6948332096677006e-01 2.1808034272737505e+01 5.8400831648860185e+00 0 0 0
126 2 5.0536805566354470e-01 2.5805659141320660e+01 5.8500408869736216e+00 0 0 0
95 2 3.7311240422243528e+00 2.8110394850742296e+01 2.7511806355965618e-02 0 0 1
104 2 5.3814752629838862e+00 2.8253669554581855e+01 2.3687961604432859e+00 0 0 0
105 2 4.5329122435624205e+00 2.8183912911273044e+01 4.6912819463446169e+00 0 0 0
623 2 3.8368193747096768e-02 2.1738901529086117e+01 1.1671209658072819e+00 1 0 0
242 2 7.3546533524819324e+00 2.2327218746551193e+01 1.3098579341462979e+00 0 0 0
109 2 4.1448688358332983e+00 2.2077019626446056e+01 3.5518947243045051e+00 0 0 0
110 2 5.7578234038313756e+00 2.2202237123029256e+01 5.9180642622912458e+00 0 0 0
111 2 4.9552834339656879e+00 2.2141860127783104e+01 1.2362817236291503e+00 0 0 0
112 2 6.5601298839375710e+00 2.2265913772210009e+01 3.6094026911256134e+00 0 0 0
113 2 3.9250406447551085e+00 2.4087934893745210e+01 7.6164789803088620e-02 0 0 0
114 2 5.5526187545594334e+00 2.4222985510811000e+01 2.4335141347730480e+00 0 0 0
115 2 3.8098501749927216e+00 2.6080321601222625e+01 3.5626625526573932e+00 0 0 0
116 2 5.4397235608740484e+00 2.6247004667051083e+01 5.9005385016121021e+00 0 0 0
117 2 4.6227563259612996e+00 2.6169055311540564e+01 1.2316516723666695e+00 0 0 0
118 2 4.7443930386048798e+00 2.4150228943972170e+01 4.7555801576871533e+00 0 0 0
119 2 6.3603074118541967e+00 2.4294267320223245e+01 1.1371283449382415e-01 0 0 0
120 2 6.2609316862694628e+00 2.6316249279758853e+01 3.5744876445593623e+00 0 0 0
122 2 7.0724369639330220e+00 2.6393845942837519e+01 1.2424282848011103e+00 0 0 0
123 2 7.1663372425373426e+00 2.4367012518425916e+01 4.7839634726041949e+00 0 0 0
127 2 8.6101608344941223e+00 2.2993116563715250e+00 3.5037874232592783e+00 0 0 0
128 2 1.0278323887101635e+01 2.3961055119570993e+00 5.8312759416401754e+00 0 0 0
129 2 9.4527118332249760e+00 2.3540285229036577e+00 1.1716117844494698e+00 0 0 0
130 2 1.1119857768956750e+01 2.4242136671283472e+00 3.5009639184634218e+00 0 0 0
131 2 8.5091770635717427e+00 4.3012398690590983e+00 6.9934479539974124e+00 0 0 0
132 2 1.0219505958184126e+01 4.4097011178624488e+00 2.3393072275236113e+00 0 0 0
133 2 8.2866975488640744e+00 6.2800709866694930e+00 3.5462415816244306e+00 0 0 0
134 2 1.0112537668846558e+01 6.3932656833379484e+00 5.8890305590249179e+00 0 0 0
135 2 9.1637231972179389e+00 6.3374334827300514e+00 1.2212503904220067e+00 0 0 0
136 2 9.3626391180759931e+00 4.3691823562306622e+00 4.6697851381653503e+00 0 0 0
137 2 1.1083281410669109e+01 4.4283690186026510e+00 7.1077759767961268e-03 0 0 1
138 2 1.1053615374912964e+01 6.3992507765234583e+00 3.5309595642917739e+00 0 0 0
152 2 7.7705886702438240e+00 2.2304594439462684e+00 5.8292644704104468e+00 0 0 0
153 2 7.6632055152881176e+00 4.2334193733175773e+00 2.3294569355429946e+00 0 0 0
139 2 1.2800335579767333e+01 2.4210097292276722e+00 5.8362159051810174e+00 0 0 0
140 2 1.1963153533580549e+01 2.4333833814772268e+00 1.1718002622013883e+00 0 0 0
141 2 1.3640346210494341e+01 2.3909666091350386e+00 3.5048363847971498e+00 0 0 0
142 2 1.4477437347684489e+01 2.3466749413681858e+00 1.1718613476555708e+00 0 0 0
143 2 1.4436886582999605e+01 3.3423079017008428e-01 4.6491060889373559e+00 0 0 0
144 2 1.2840982216425083e+01 4.4271089486968531e+00 2.3366189040570067e+00 0 0 0
145 2 1.2877059548391745e+01 6.3992885269401629e+00 5.8015869319772513e+00 0 0 0
146 2 1.1963266627306167e+01 6.4007781713759524e+00 1.1693927744953703e+00 0 0 0
147 2 1.1962394351507568e+01 4.4326361259516460e+00 4.6687121115140044e+00 0 0 0
148 2 1.3702188426682534e+01 4.4040936036771310e+00 5.1641908454937990e-03 0 0 1
149 2 1.3824327734911121e+01 6.3884527229131614e+00 3.4476344463766080e+00 0 0 0
150 2 1.4761607212970082e+01 6.3279032937818327e+00 1.1245384682242110e+00 0 0 0
151 2 1.4555631329092641e+01 4.3598453245968178e+00 4.6696231839510762e+00 0 0 0
154 2 1.2786693714262507e+01 4.1052903360978121e-01 2.3295800201366141e+00 0 0 0
155 2 1.3612486587504749e+01 3.8021616614760190e-01 6.9859102840941718e+00 0 0 -1
156 2 1.1958015682787737e+01 4.2216637046358108e-01 4.6680277993054977e+00 0 0 0
25 2 7.4228617290650494e+00 6.2068516340560125e+00 5.8608562328041520e+00 0 0 0
221 2 7.8410906059607877e+00 2.1607202054276442e-01 2.3672771500564780e+00 0 1 0
222 2 8.6584794044185003e+00 2.8425577238846600e-01 3.0322575605966406e-02 0 1 1
223 2 1.0308003760059398e+01 3.8378201705363679e-01 2.3513376440066511e+00 0 1 0
224 2 9.4783565894933375e+00 3.4008834236221475e-01 4.6876460414640899e+00 0 1 0
225 2 1.1132362288629320e+01 4.1347520141388827e-01 1.2705115229542478e-02 0 1 0
157 2 7.7391084565865533e+00 8.2403298700204370e+00 1.6646932184468061e-01 0 0 0
158 2 9.2936300807645029e+00 8.3883707219134180e+00 2.5601256324849730e+00 0 0 0
159 2 7.5633696611875187e+00 1.0277908660561872e+01 3.6186237767205522e+00 0 0 0
160 2 9.1649141402959806e+00 1.0417858986233888e+01 5.9498979604564202e+00 0 0 0
161 2 8.3656129360627496e+00 1.0345558340101682e+01 1.2913635209659391e+00 0 0 0
162 2 8.5107030208517429e+00 8.3279593906751099e+00 4.8687973017745101e+00 0 0 0
163 2 1.0051993885424672e+01 8.4447795111411459e+00 2.1806282079719261e-01 0 0 0
164 2 9.9650829527099702e+00 1.0474876297334445e+01 3.6026745529569286e+00 0 0 0
165 2 1.0760160123204217e+01 1.0519179294936340e+01 1.2394420774442978e+00 0 0 0
166 2 7.4743252508523588e+00 1.2302427946867757e+01 7.2219059528131763e-02 0 0 0
167 2 9.1006529428185541e+00 1.2433987156406545e+01 2.3930094652406084e+00 0 0 0
189 2 1.3177697487591798e+01 1.2527099328543839e+01 4.6364682387961809e+00 0 0 0
300 2 1.4805429249472887e+01 1.2423577997390870e+01 6.9399297182598110e+00 0 0 -1
292 2 1.4738772640141736e+01 1.0405898144993115e+01 3.3846418712124451e+00 0 0 0
171 2 8.2869058541691203e+00 1.2371849454110706e+01 4.7312660785739586e+00 0 0 0
172 2 9.9153421733170379e+00 1.2489772124471118e+01 5.0531096904661295e-02 0 0 0
290 2 1.4605130426395542e+01 8.3772035494094688e+00 6.7785635584783481e+00 0 0 -1
188 2 1.3990747457757410e+01 1.2480658187653992e+01 2.2875129995365935e+00 0 0 0
175 2 1.0728871470439115e+01 1.2532725243388935e+01 4.6952321084278363e+00 0 0 0
176 2 1.1593692736617221e+01 8.4929979276229055e+00 2.3970877647743634e+00 0 0 0
177 2 1.1552247416622007e+01 1.0550053107099567e+01 5.8534251384180447e+00 0 0 0
178 2 1.0830918333379328e+01 8.4756553871143065e+00 4.8229110605903776e+00 0 0 0
179 2 1.2298009231191177e+01 8.4892889635369269e+00 6.9188385968878503e+00 0 0 -1
180 2 1.3845396041763490e+01 8.4373255178870963e+00 2.1193060789760456e+00 0 0 0
181 2 1.2350748914667243e+01 1.0547904720037570e+01 3.4740262876419257e+00 0 0 0
182 2 1.3938214451384187e+01 1.0465423494712812e+01 5.7294191623411663e+00 0 0 0
183 2 1.3141613838041078e+01 1.0511923041114487e+01 1.0948765722619387e+00 0 0 0
184 2 1.3068938228819672e+01 8.4717725970329791e+00 4.5000561725525374e+00 0 0 0
185 2 1.1544670757331366e+01 1.2552061078247322e+01 2.3441325873139465e+00 0 0 0
187 2 1.2361944240998753e+01 1.2550156543837854e+01 6.9871540040270474e+00 0 0 -1
190 2 9.0176083692229554e+00 1.6461069399196425e+01 2.3329902128966209e+00 0 0 0
191 2 8.9272496293840398e+00 1.8465652881268184e+01 5.8252444633738589e+00 0 0 0
192 2 8.0737628971742641e+00 1.8395967816996908e+01 1.1563737747950193e+00 0 0 0
193 2 8.1824977905066163e+00 1.6398287346330420e+01 4.6615976239076886e+00 0 0 0
194 2 9.8538974354780944e+00 1.6509518722747860e+01 1.2449664938456451e-03 0 0 1
195 2 9.7850745738737572e+00 1.8522402203244365e+01 3.5001930986239822e+00 0 0 0
196 2 1.0642601299809366e+01 1.8552682710627987e+01 1.1698331876163075e+00 0 0 0
197 2 1.0693305558011435e+01 1.6545207682781822e+01 4.6634958062184770e+00 0 0 0
198 2 8.7147051249083063e+00 2.0436844791782878e+01 2.3787764873893007e+00 0 0 0
199 2 7.8478161706969987e+00 2.0372381205266038e+01 4.6961898510824289e+00 0 0 0
200 2 9.6186809002920004e+00 2.0494718730017517e+01 5.4248831794219576e-02 0 0 1
201 2 1.1505819768223766e+01 2.0532206146622819e+01 2.3471909507696900e+00 0 0 0
202 2 1.0581143011108002e+01 2.0527923223792744e+01 4.7089246992939113e+00 0 0 0
203 2 1.4022640872694231e+01 1.4492726148081555e+01 5.8166242060090099e+00 0 0 0
204 2 1.1534573972650447e+01 1.6564517959416474e+01 2.3338101406857548e+00 0 0 0
205 2 1.1516344012425947e+01 1.8563597134657247e+01 5.8335405733760020e+00 0 0 0
206 2 1.2376705666972644e+01 1.6563027811326421e+01 5.7947375202846985e-03 0 0 1
207 2 1.4056652395521326e+01 1.6503115720747306e+01 2.3373748579531313e+00 0 0 0
208 2 1.2399257381722940e+01 1.8562816713227310e+01 3.5001355574869120e+00 0 0 0
209 2 1.4127621400665516e+01 1.8516822887599723e+01 5.8330067626090676e+00 0 0 0
210 2 1.3271326139232494e+01 1.8549751129709946e+01 1.1697711988672508e+00 0 0 0
211 2 1.3217672523381202e+01 1.6540996800826857e+01 4.6696940488643914e+00 0 0 0
219 2 1.3195955916151668e+01 1.4531640832629604e+01 1.1592872897186814e+00 0 0 0
218 2 1.2368126797525768e+01 1.4553499514285514e+01 3.4969168193447757e+00 0 0 0
214 2 1.2412652192247286e+01 2.0531769404256575e+01 6.9848036277418117e+00 0 0 0
215 2 1.4303254654196026e+01 2.0488049037466642e+01 2.2870949436012848e+00 0 0 0
216 2 1.3340256603087726e+01 2.0526812460541990e+01 4.6231885215616551e+00 0 0 0
169 2 9.0615504853194011e+00 1.4448717756174712e+01 5.8526886029026546e+00 0 0 0
170 2 8.2375777074895105e+00 1.4388093655632352e+01 1.1933058257376155e+00 0 0 0
173 2 9.8858705500082706e+00 1.4499991038060031e+01 3.5159612622108840e+00 0 0 0
174 2 1.0712935314739349e+01 1.4536448819315044e+01 1.1794145270499528e+00 0 0 0
186 2 1.1540852674660039e+01 1.4555211664207798e+01 5.8358048213073639e+00 0 0 0
252 2 1.1956647700202632e+01 2.6684441117801661e+01 1.1707873017970776e+00 0 0 0
251 2 1.2772452050551221e+01 2.6672427650885417e+01 5.8132431721668061e+00 0 0 0
250 2 1.1141330012914535e+01 2.6673798971733724e+01 3.5227670140232541e+00 0 0 0
249 2 1.2750607843862898e+01 2.4665541513397415e+01 2.2878261495332750e+00 0 0 0
248 2 1.1157160726423712e+01 2.4669444575680565e+01 5.0813353984315170e-02 0 0 0
226 2 8.1244057093554769e+00 2.2413085130406348e+01 6.0122207508259571e+00 0 0 0
228 2 8.9062580578524173e+00 2.2484319827586614e+01 3.7159005219791195e+00 0 0 0
229 2 1.0444158086139076e+01 2.2589198319338909e+01 6.0255181544367780e+00 0 0 0
230 2 9.6768128825182291e+00 2.2545232221332423e+01 1.3929634791415693e+00 0 0 0
231 2 7.9679792092410455e+00 2.4436548519554698e+01 2.4566767113097510e+00 0 0 0
232 2 7.8849852220847163e+00 2.6465556441525667e+01 5.9035191987549753e+00 0 0 0
235 2 8.7676825905531270e+00 2.4509408601933409e+01 1.2644749507868266e-01 0 0 0
236 2 1.0366569859121217e+01 2.4626340453431279e+01 2.4254317171775392e+00 0 0 0
237 2 8.7006269178650104e+00 2.6529444707233171e+01 3.5670104267402190e+00 0 0 0
238 2 1.0324966400034029e+01 2.6643461177101972e+01 5.8723487249696928e+00 0 0 0
239 2 9.5126364725632406e+00 2.6591450537780879e+01 1.2254556388961446e+00 0 0 0
240 2 9.5692761781232019e+00 2.4573582585021128e+01 4.7801542281033642e+00 0 0 0
253 2 1.1955086576788194e+01 2.4681295819099301e+01 4.6666924420843996e+00 0 0 0
227 2 1.4341061490212063e+01 2.4568739275283956e+01 4.5566518569292418e+00 0 0 0
233 2 1.4400243688800019e+01 2.6585549358429642e+01 1.1171618560614525e+00 0 0 0
234 2 1.3587737710393300e+01 2.6638351525210656e+01 3.4636156283943160e+00 0 0 0
241 2 1.4226112044537352e+01 2.2539065345925785e+01 9.4883384396844184e-01 0 0 0
243 2 1.3541689558802187e+01 2.4622043752432898e+01 6.9092147776365174e+00 0 0 -1
244 2 1.1222280566653222e+01 2.2613877688671710e+01 3.6183670752043029e+00 0 0 0
245 2 1.2683714692291757e+01 2.2611980497760509e+01 5.7096466733606572e+00 0 0 0
246 2 1.1948559836183554e+01 2.2635534197137858e+01 1.1636862028279178e+00 0 0 0
247 2 1.3462912921525616e+01 2.2586177887431447e+01 3.3063789627546636e+00 0 0 0
254 2 1.5260486178678546e+01 2.7602732057324514e-01 2.3126684513604818e+00 0 0 0
255 2 1.5310349421885004e+01 2.2901731543207724e+00 5.8347581913024111e+00 0 0 0
256 2 1.6083225265863256e+01 2.1084505660952851e-01 6.9731032059477771e+00 0 0 -1
257 2 1.7728242404788315e+01 6.3782327290944532e-02 2.3130003134553734e+00 0 0 0
258 2 1.6144494636635496e+01 2.2202996287518753e+00 3.5072073540143269e+00 0 0 0
259 2 1.7805930729014680e+01 2.0713801583867020e+00 5.8467705166274371e+00 0 0 0
260 2 1.6976704926460474e+01 2.1471913201757356e+00 1.1796848050918369e+00 0 0 0
261 2 1.6905644485488246e+01 1.3869322310753199e-01 4.6422147239214322e+00 0 0 0
262 2 1.5412639374643000e+01 4.2901400869936284e+00 2.3462248404309860e+00 0 0 0
263 2 1.5632811001674970e+01 6.2676076928238471e+00 5.7963836944513893e+00 0 0 0
264 2 1.6258774686513181e+01 4.2187274326732620e+00 1.9296586937090687e-02 0 0 1
265 2 1.7935460487129497e+01 4.0697403708307061e+00 2.3640567490246105e+00 0 0 0
266 2 1.6492287496553402e+01 6.1948423493592575e+00 3.4821933929665629e+00 0 0 0
267 2 1.8168430731109265e+01 6.0535589833564911e+00 5.8333122690672585e+00 0 0 0
268 2 1.7333772753974074e+01 6.1234091407593239e+00 1.1611273253604335e+00 0 0 0
269 2 1.7098799586660078e+01 4.1436370971245706e+00 4.6890857819269076e+00 0 0 0
286 2 2.2058256412538466e+01 3.7070424815186080e+00 4.7298078920132767e+00 0 0 0
285 2 2.1465403140333830e+01 5.7820408694393262e+00 3.5339968089764366e+00 0 0 0
272 2 1.8634124178874945e+01 1.9954044166420135e+00 3.5200031542768424e+00 0 0 0
273 2 2.0284414591683547e+01 1.8440597732614434e+00 5.8611955047390412e+00 0 0 0
274 2 1.9460539416431828e+01 1.9196113281944704e+00 1.1935724594186565e+00 0 0 0
284 2 2.1240467409514618e+01 3.7781440594022069e+00 5.8814226410403007e-02 0 0 0
276 2 2.1107553715005565e+01 1.7690950286676765e+00 3.5353108714328987e+00 0 0 0
277 2 2.1928832297628691e+01 1.6942760637169962e+00 1.2096910691115492e+00 0 0 0
278 2 1.8767098211679087e+01 3.9957121934020354e+00 3.8725871963984915e-02 0 0 1
279 2 2.0419380562351535e+01 3.8503215486542470e+00 2.3828758925587650e+00 0 0 0
280 2 1.8999788435765897e+01 5.9852170703660184e+00 3.5098966731114505e+00 0 0 0
281 2 2.0647612309559971e+01 5.8490346490148344e+00 5.8567204757208264e+00 0 0 0
282 2 1.9825039049205849e+01 5.9171639236322946e+00 1.1858526049944871e+00 0 0 0
283 2 1.9594718791838812e+01 3.9227366612068795e+00 4.7076421265878396e+00 0 0 0
319 2 2.2164995277706058e+01 1.1771186405372436e+01 6.9612389674034825e+00 0 0 0
291 2 1.6157854847847311e+01 8.2243403320787447e+00 2.1844248934531030e+00 0 0 0
318 2 2.0519061100179304e+01 1.1920944681107944e+01 4.6185272329061151e+00 0 0 0
293 2 1.6340594699465438e+01 1.0265829410046576e+01 5.7180809964672141e+00 0 0 0
294 2 1.5537524739871555e+01 1.0332575723922321e+01 1.0507321679355870e+00 0 0 0
295 2 1.5390216110631551e+01 8.3145876604619637e+00 4.4758954021097290e+00 0 0 0
296 2 1.6943385605753114e+01 8.1592142844368567e+00 6.8806298885849158e+00 0 0 -1
297 2 1.7143469182603610e+01 1.0191402335944250e+01 3.3915428797821829e+00 0 0 0
298 2 1.7948663479364438e+01 1.0120456247226864e+01 1.0697682819527088e+00 0 0 0
299 2 1.7746543239227599e+01 8.0969839290098005e+00 4.5747894821102228e+00 0 0 0
317 2 2.1341129133783738e+01 1.1846165377918586e+01 2.2929810334384046e+00 0 0 0
301 2 1.6431607389443158e+01 1.2289861101923856e+01 2.2673296492979107e+00 0 0 0
302 2 1.5619007716148541e+01 1.2360368675958000e+01 4.6018789892862459e+00 0 0 0
303 2 1.7247038048136744e+01 1.2218703384812265e+01 6.9313976008453659e+00 0 0 -1
304 2 1.8062360742348790e+01 1.2143965458655542e+01 4.6024112551132035e+00 0 0 0
305 2 1.8545524100400726e+01 8.0336287430049111e+00 2.2604936295167128e+00 0 0 0
306 2 1.8759358087797107e+01 1.0051443804424611e+01 5.7434924461813912e+00 0 0 0
307 2 1.9352069649772531e+01 7.9688751092895576e+00 6.9373206050181233e+00 0 0 0
308 2 2.0980354575990432e+01 7.8361420633917591e+00 2.2958074925218104e+00 0 0 0
309 2 1.9572130038472878e+01 9.9805830141705894e+00 3.4219725123624976e+00 0 0 0
310 2 2.1206730733157404e+01 9.8384256642450083e+00 5.7705920338933536e+00 0 0 0
311 2 2.0387472653595502e+01 9.9097681348088216e+00 1.0996153092700345e+00 0 0 0
312 2 2.0166060133163160e+01 7.9025949646847105e+00 4.6178016103346078e+00 0 0 0
313 2 2.1799733519645724e+01 7.7687534470861914e+00 6.9671560899855791e+00 0 0 0
314 2 2.2028985195744983e+01 9.7661487172395454e+00 3.4463962496338931e+00 0 0 0
315 2 1.8879273851501985e+01 1.2069372392957218e+01 2.2756265716608106e+00 0 0 0
316 2 1.9698695193070971e+01 1.1995517825597846e+01 6.9441464114031159e+00 0 0 0
337 2 1.8963060808519248e+01 1.4082683993328201e+01 5.8149130694544597e+00 0 0 0
338 2 1.9785962150863437e+01 1.4006388627965167e+01 3.4879076820734802e+00 0 0 0
339 2 2.1432277210223909e+01 1.3854600126479951e+01 5.8290871786494511e+00 0 0 0
340 2 2.0609278613509634e+01 1.3930554166723148e+01 1.1615089408773560e+00 0 0 0
321 2 1.6494052552251656e+01 1.4308380936394034e+01 5.8070143142101553e+00 0 0 0
322 2 1.5670401561606125e+01 1.4377455717500885e+01 1.1448291958363599e+00 0 0 0
323 2 1.7316775276396509e+01 1.4234227830160405e+01 3.4768636286998604e+00 0 0 0
324 2 1.8140153332414737e+01 1.4159182427493837e+01 1.1486194259604201e+00 0 0 0
325 2 1.6560991671005453e+01 1.6316319714953497e+01 2.3426008173811650e+00 0 0 0
326 2 1.6680709928231465e+01 1.8313186540960238e+01 5.8498314565555036e+00 0 0 0
327 2 1.5837772323718811e+01 1.8386578326422981e+01 1.1816132808836606e+00 0 0 0
328 2 1.5727216429369403e+01 1.6387973300085708e+01 4.6703269872837270e+00 0 0 0
329 2 1.7392494252094053e+01 1.6241821425508125e+01 1.5273653014704180e-02 0 0 1
330 2 1.7519853391713621e+01 1.8238060309564730e+01 3.5253026247691288e+00 0 0 0
331 2 1.8354630956700898e+01 1.8164130297587302e+01 1.1998424060516384e+00 0 0 0
332 2 1.8221956422375847e+01 1.6165464603457529e+01 4.6823931991627052e+00 0 0 0
333 2 1.6917271697888030e+01 2.0289958554114392e+01 2.3208661330043960e+00 0 0 0
334 2 1.6064967029186668e+01 2.0364156269043455e+01 4.6383174074624298e+00 0 0 0
335 2 1.7753405789820050e+01 2.0219472286456849e+01 6.9928054745541957e+00 0 0 -1
336 2 1.8587347268161253e+01 2.0150036714661585e+01 4.6702517325510469e+00 0 0 0
320 2 2.1061397977997611e+01 1.9945858573120674e+01 4.6931964051342039e+00 0 0 0
217 2 1.5199067910337249e+01 2.0430122519939360e+01 6.9556246040588929e+00 0 0 -1
213 2 1.4985670949455709e+01 1.8456816151330337e+01 3.5081140544751284e+00 0 0 0
220 2 1.4846502623344685e+01 1.4439314914714954e+01 3.4795122887886323e+00 0 0 0
212 2 1.4892464617296483e+01 1.6452825620637601e+01 5.2659735203208768e-03 0 0 1
341 2 1.9049940473654910e+01 1.6089659871209793e+01 2.3557998546186636e+00 0 0 0
342 2 1.9184729802153687e+01 1.8090330587460627e+01 5.8685329260442582e+00 0 0 0
343 2 1.9875841830255222e+01 1.6013803384015450e+01 2.9311587309750215e-02 0 0 0
344 2 2.1522990033883637e+01 1.5863823570928584e+01 2.3716237634257320e+00 0 0 0
345 2 2.0011502938368753e+01 1.8017697403249311e+01 3.5434800209358528e+00 0 0 0
346 2 2.1655410577794505e+01 1.7873610677110889e+01 5.8892497173913192e+00 0 0 0
347 2 2.0834904721174258e+01 1.7945328078249631e+01 1.2187978055000945e+00 0 0 0
348 2 2.0700177273522613e+01 1.5938579464829713e+01 4.6972692252242298e+00 0 0 0
349 2 1.9416198656786008e+01 2.0081938506926306e+01 2.3460885049439630e+00 0 0 0
350 2 2.0239981795249530e+01 2.0013684130833500e+01 2.2155717304794820e-02 0 0 1
351 2 2.1877007332515674e+01 1.9879200552023132e+01 2.3705373771724738e+00 0 0 0
352 2 1.5000313295575658e+01 2.2478431813280064e+01 5.6229891539422674e+00 0 0 0
354 2 1.5780939101245551e+01 2.2405407338808448e+01 3.3281312253838919e+00 0 0 0
355 2 1.7346773382817318e+01 2.2259813327016854e+01 5.7273337711049681e+00 0 0 0
356 2 1.6549941126347509e+01 2.2320512034798320e+01 1.0344979422227516e+00 0 0 0
357 2 1.5140297421718394e+01 2.4502143884513487e+01 2.2165590736184959e+00 0 0 0
358 2 1.5213978910909159e+01 2.6525063543002254e+01 5.7713636388902669e+00 0 0 0
359 2 1.5940169516038420e+01 2.4430556414397724e+01 6.8810121547372187e+00 0 0 -1
360 2 1.7546909570681827e+01 2.4287216928193221e+01 2.2296562416623895e+00 0 0 0
361 2 1.6026806413150815e+01 2.6458090243182649e+01 3.4346109490205068e+00 0 0 0
362 2 1.7655113964169800e+01 2.6314397592812025e+01 5.7670042518826516e+00 0 0 0
363 2 1.6839920114350019e+01 2.6386861681382342e+01 1.1021149137629083e+00 0 0 0
364 2 1.6744142958222447e+01 2.4362040029019699e+01 4.5548743031142349e+00 0 0 0
367 2 1.8149203345207031e+01 2.2196339963058307e+01 3.4170714431959066e+00 0 0 0
373 2 1.8354238287809586e+01 2.4217848816754827e+01 6.9030818324422265e+00 0 0 0
375 2 1.8470513241041008e+01 2.6238964259396230e+01 3.4387016009287352e+00 0 0 0
353 2 2.1616636719232169e+01 2.3933984517890149e+01 4.6072466441906030e+00 0 0 0
365 2 2.0928131894195932e+01 2.6015843214868706e+01 3.4550349539384486e+00 0 0 0
366 2 2.0796229074661259e+01 2.4005825866466832e+01 6.9310912882096858e+00 0 0 0
368 2 1.9760353298271539e+01 2.2066726553478926e+01 5.7764073257115003e+00 0 0 0
369 2 1.8949367046011488e+01 2.2132490890540709e+01 1.1006227796087116e+00 0 0 0