LAMMPS data file via write_data, version 11 Aug 2017, timestep = 1000

1201 atoms
2 atom types

0.0000000000000000e+00 4.9455458018713003e+01 xlo xhi
0.0000000000000000e+00 4.0380212380494001e+01 ylo yhi
0.0000000000000000e+00 6.9940579463440002e+00 zlo zhi

Masses

1 12.0107
2 55.845

Atoms # atomic

1 2 1.2313577174014152e+00 1.0904965297864393e+00 3.4858935563228348e+00 0 0 0
2 2 2.8476636037959868e+00 1.1563409572204424e+00 5.8448590486480567e+00 0 0 0
3 2 2.2895718776721190e+00 1.1421420255200974e+00 1.4175692470194807e+00 0 0 0
4 2 3.7159665931610548e+00 1.2023526829091340e+00 3.5140027196108163e+00 0 0 0
6 2 4.6090425347148400e+00 1.2439804270753929e+00 1.1611204342086381e+00 0 0 0
7 2 1.2220738496995815e+00 3.0562556341028611e+00 6.9762281138368758e+00 0 0 0
8 2 2.8815951391234065e+00 3.2356285442155270e+00 2.3376653655999506e+00 0 0 0
9 2 2.0203415555621986e+00 3.1389161782190675e+00 4.6375975878599549e+00 0 0 0
10 2 3.6862188255367205e+00 3.2186844483071333e+00 6.9788933700111242e+00 0 0 0
12 2 4.4785681588449009e+00 3.2745366894927934e+00 4.6339370685160830e+00 0 0 0
57 2 1.7233846589911095e-01 1.0591868169219723e+00 5.5551540511873849e+00 0 0 0
58 2 4.1086655355288920e-01 3.0844107949961979e+00 2.3182610762916029e+00 0 0 0
1201 1 1.2315949008269820e+00 1.0814327369566477e+00 6.9833296324275285e+00 0 0 -1
5 2 5.3368137375982725e+00 1.2949498918251581e+00 5.8101961981922825e+00 0 0 0
11 2 5.3195474035055224e+00 3.3271768094047198e+00 2.2995204707968258e+00 0 0 0
13 2 6.1757342460488447e+00 1.3452703748205832e+00 3.4813654364493933e+00 0 0 0
14 2 7.8106561773251846e+00 1.4517253067847808e+00 5.8085890873135178e+00 0 0 0
15 2 7.0238144236265212e+00 1.3981888778538432e+00 1.1500751828244811e+00 0 0 0
16 2 8.6390961318053474e+00 1.5047375722967589e+00 3.4812696037216466e+00 0 0 0
18 2 9.4705058862714679e+00 1.5584329105687789e+00 1.1514566331119744e+00 0 0 0
19 2 6.1309904929464762e+00 3.3683998858679867e+00 6.9519494254693868e+00 0 0 0
20 2 7.7653726113240173e+00 3.4756133632394577e+00 2.2881049717633855e+00 0 0 0
21 2 6.9362825872840173e+00 3.4221044628460215e+00 4.6177849550454937e+00 0 0 0
22 2 8.5825994914695283e+00 3.5242761868582733e+00 6.9496217212575004e+00 0 0 0
24 2 9.3968857578021368e+00 3.5773329879862730e+00 4.6198114046523369e+00 0 0 0
25 2 1.1967031011072786e+00 5.1209290641755132e+00 3.4489166155727506e+00 0 0 0
26 2 2.8181559953805944e+00 5.1873419203017921e+00 5.7687564241262628e+00 0 0 0
27 2 2.0021825144870622e+00 5.1446693727800659e+00 1.0988578803305400e+00 0 0 0
28 2 3.6301753325052859e+00 5.2706594700228626e+00 3.4405201994251140e+00 0 0 0
30 2 4.4358507741820041e+00 5.3027385052239326e+00 1.0983054343216645e+00 0 0 0
31 2 1.1535767251809017e+00 7.1264822068470028e+00 6.8937157840114853e+00 0 0 0
32 2 2.7434251698829972e+00 7.2264272604031490e+00 2.2076587895141859e+00 0 0 0
33 2 1.0796004114144035e+00 9.1608979941408748e+00 3.2919477875268477e+00 0 0 0
34 2 2.6199007765246201e+00 9.2523596312600738e+00 5.6272145330263843e+00 0 0 0
35 2 1.8323148293085150e+00 9.2059025714302241e+00 9.4516639522159285e-01 0 0 0
36 2 1.9559776257120616e+00 7.1702829200571516e+00 4.5506745688619876e+00 0 0 0
37 2 3.5450402594614023e+00 7.2776691745876390e+00 6.8775765325047074e+00 0 0 0
39 2 3.3974186388192993e+00 9.3126431822005280e+00 3.3322074867385236e+00 0 0 0
41 2 4.1657216393666614e+00 9.3768509172276460e+00 1.0365142796581650e+00 0 0 0
42 2 4.3512472205470756e+00 7.3380751196095266e+00 4.5571390651795465e+00 0 0 0
59 2 3.9522076727503436e-01 5.0696531320421636e+00 5.8055029657801089e+00 0 0 0
60 2 3.5783599100075991e-01 7.0948780698541576e+00 2.2584827610542266e+00 0 0 0
61 2 2.9969855248095267e-01 9.1397292532942771e+00 5.6786803690297081e+00 0 0 0
17 2 9.1925500534126225e+00 7.6195025780854637e+00 4.5989713261508660e+00 0 0 0
23 2 9.0006808334436936e+00 9.6356851720629741e+00 1.1290655409922850e+00 0 0 0
29 2 5.2461344286277498e+00 5.3481532461514689e+00 5.7595527440343259e+00 0 0 0
38 2 5.1460066661732462e+00 7.3879516103970291e+00 2.2281096967875706e+00 0 0 0
40 2 4.9685312664175445e+00 9.4223878030495865e+00 5.7304877126316445e+00 0 0 0
43 2 6.0580773557821530e+00 5.4039249048468614e+00 3.4274081208401737e+00 0 0 0
44 2 7.6834186197858951e+00 5.4972982367322931e+00 5.7604826399941915e+00 0 0 0
45 2 6.8696421099780354e+00 5.4493024716443781e+00 1.0955531088762644e+00 0 0 0
46 2 8.4991444239145899e+00 5.5492706327254684e+00 3.4323558311620692e+00 0 0 0
47 2 9.8179413730296883e+00 9.6807134517492770e+00 5.7986984767823033e+00 0 0 0
48 2 9.3160307587361384e+00 5.5977693399395996e+00 1.1038329389627166e+00 0 0 0
49 2 5.9506340271002518e+00 7.4325736859419695e+00 6.9002468713706300e+00 0 0 0
50 2 7.5663359408206086e+00 7.5262636992955594e+00 2.2534716061133020e+00 0 0 0
51 2 5.7684300110098068e+00 9.4635305955255902e+00 3.4179975980591011e+00 0 0 0
52 2 7.3782536947115336e+00 9.5490562610086762e+00 5.7756144007332084e+00 0 0 0
53 2 6.5665321996991146e+00 9.5052879032384592e+00 1.1004258923576846e+00 0 0 0
54 2 6.7604966198552185e+00 7.4802816018917797e+00 4.5783344953641718e+00 0 0 0
55 2 8.3775345403781092e+00 7.5719081152221763e+00 6.9235049842667058e+00 0 0 0
56 2 8.1892824879447144e+00 9.5919132416190589e+00 3.4530256225570248e+00 0 0 0
62 2 7.6012044280225594e-02 1.1222152527590861e+01 6.9671634602536283e+00 0 0 0
63 2 1.9662499573487249e+00 1.1258203330927401e+01 2.2824789537180608e+00 0 0 0
64 2 5.6435634578086369e-02 1.3194972172516923e+01 3.4935046258253570e+00 0 0 0
65 2 1.7901761008004411e+00 1.3228569011429974e+01 5.8286766936836356e+00 0 0 0
66 2 9.2866905091069318e-01 1.3203241898686183e+01 1.1638370095163297e+00 0 0 0
67 2 1.0071045389884399e+00 1.1222260130765894e+01 4.6118817638863536e+00 0 0 0
68 2 2.8536797908117353e+00 1.1298994114872688e+01 6.9508391731367070e+00 0 0 0
69 2 4.5770928080075368e+00 1.1401242699188975e+01 2.3156441036323470e+00 0 0 0
70 2 2.6545397594590932e+00 1.3276581231770784e+01 3.5062234686922360e+00 0 0 0
71 2 4.3592449391773815e+00 1.3380465426155983e+01 5.8497513965913335e+00 0 0 0
72 2 3.5103947632159644e+00 1.3327488087478072e+01 1.1803109403513063e+00 0 0 0
73 2 3.7225159047389864e+00 1.1347887875866890e+01 4.6342853214188873e+00 0 0 0
74 2 5.4176140073378773e+00 1.1452399050987188e+01 6.9880084452879299e+00 0 0 0
75 2 7.0897263338073477e+00 1.1544822656693968e+01 2.3380317621506719e+00 0 0 0
76 2 5.2049578039924658e+00 1.3433274163190893e+01 3.5253814970023574e+00 0 0 0
77 2 6.8832883084742491e+00 1.3535903577668691e+01 5.8672970595614409e+00 0 0 0
78 2 6.0464263501235385e+00 1.3485307903556182e+01 1.1999304193880627e+00 0 0 0
79 2 6.2557911871258627e+00 1.1499139269976705e+01 4.6639984616774273e+00 0 0 0
80 2 7.9194141282958661e+00 1.1591412982864554e+01 1.1670667340532024e-02 0 0 0
81 2 9.5733160029490705e+00 1.1682582640311828e+01 2.3511659504607518e+00 0 0 0
82 2 7.7176016723666505e+00 1.3585502744563662e+01 3.5400128834270448e+00 0 0 0
83 2 9.3776267075313040e+00 1.3684000198241675e+01 5.8786447692361685e+00 0 0 0
84 2 8.5491150414979451e+00 1.3635013396525929e+01 1.2124496146222894e+00 0 0 0
85 2 8.7475192037497909e+00 1.1637012199378606e+01 4.6785865096767525e+00 0 0 0
86 2 2.3927691808902942e-02 1.5201831663331578e+01 4.6733808004247451e-03 0 0 0
87 2 1.7151235777738432e+00 1.5245120733757727e+01 2.3423251303057726e+00 0 0 0
88 2 1.2082345180746232e-02 1.7222558825092136e+01 3.4981478388979843e+00 0 0 0
89 2 1.6807049590829339e+00 1.7262276316540703e+01 5.8347114662967385e+00 0 0 0
90 2 8.4649191763447040e-01 1.7237569422696563e+01 1.1693002186154571e+00 0 0 0
91 2 8.7058876029324106e-01 1.5218739198012480e+01 4.6712549855491057e+00 0 0 0
92 2 2.5574994438863383e+00 1.5279984089692460e+01 1.4387812737723618e-02 0 0 0
93 2 4.2417237964079559e+00 1.5375695282806559e+01 2.3582556756013053e+00 0 0 0
94 2 2.5141991333036668e+00 1.7295349140220242e+01 3.5057724142100715e+00 0 0 0
95 2 4.1801240029718532e+00 1.7381461578091244e+01 5.8442126861879551e+00 0 0 0
96 2 3.3472075513125974e+00 1.7335019066658269e+01 1.1773426982368111e+00 0 0 0
97 2 3.4004248012282767e+00 1.5326101767162708e+01 4.6835081905961822e+00 0 0 0
98 2 6.8908369864512766e-03 1.9241447843773571e+01 6.9925029175304534e+00 0 0 0
99 2 1.6632004933871591e+00 1.9278601968251440e+01 2.3285060904928812e+00 0 0 0
100 2 8.3521684911161509e-01 1.9255043084758562e+01 4.6604131797678638e+00 0 0 0
101 2 2.4909207576681327e+00 1.9310505147181185e+01 6.9911045918999744e+00 0 0 0
102 2 4.1446763782703337e+00 1.9393774337084775e+01 2.3290136524496523e+00 0 0 0
103 2 3.3181076416316913e+00 1.9349340819418899e+01 4.6598820606161153e+00 0 0 0
104 2 5.0806983953145455e+00 1.5427555085333688e+01 3.2802519757939172e-02 0 0 0
105 2 6.7526938064273576e+00 1.5533132729245406e+01 2.3743690180322581e+00 0 0 0
106 2 5.0122039895211765e+00 1.7431585334139438e+01 3.5170772124532736e+00 0 0 0
107 2 6.6737647288343283e+00 1.7536960205026347e+01 5.8566250772211363e+00 0 0 0
108 2 5.8434357497848994e+00 1.7483750385793442e+01 1.1899439154619464e+00 0 0 0
109 2 5.9177225530857180e+00 1.5480342727404265e+01 4.7009096000592363e+00 0 0 0
110 2 7.5853053921326286e+00 1.5585470667720525e+01 4.7084223807252169e-02 0 0 0
111 2 9.2447218580397017e+00 1.5689126463601335e+01 2.3855618695861027e+00 0 0 0
112 2 7.5029839820567146e+00 1.7590608563347153e+01 3.5289100260031629e+00 0 0 0
113 2 9.1582489651959822e+00 1.7697411976887025e+01 5.8667967675403156e+00 0 0 0
114 2 8.3311582225431255e+00 1.7644095567309371e+01 1.2009271811917857e+00 0 0 0
115 2 8.4158867574209495e+00 1.5637442308278636e+01 4.7134096646662735e+00 0 0 0
116 2 4.9711827018926558e+00 1.9442491722848629e+01 6.9931528364215687e+00 0 0 0
117 2 6.6230970850279265e+00 1.9546898657000458e+01 2.3345751847420630e+00 0 0 0
118 2 5.7973691381881354e+00 1.9493844811799985e+01 4.6637180331731791e+00 0 0 0
119 2 7.4486789838374987e+00 1.9600569132702468e+01 5.7492287188039342e-03 0 0 0
120 2 9.0987489326562905e+00 1.9708601081366833e+01 2.3423740187394588e+00 0 0 0
121 2 8.2739174218352609e+00 1.9654570442477464e+01 4.6710710068827277e+00 0 0 0
122 2 1.6508608126175615e+00 2.1292081504933616e+01 5.8146236079893461e+00 0 0 0
123 2 8.2741904103313879e-01 2.1267922547854660e+01 1.1563795079363348e+00 0 0 0
124 2 2.4737118577773334e+00 2.1324911673917601e+01 3.4791422660849465e+00 0 0 0
125 2 4.1172115829721214e+00 2.1410111220259580e+01 5.8040150768205718e+00 0 0 0
126 2 3.2955156811853850e+00 2.1365181357432320e+01 1.1439705758290208e+00 0 0 0
127 2 4.9387448837534480e+00 2.1458486196220779e+01 3.4710163248681152e+00 0 0 0
128 2 1.6367829091772439e+00 2.3302620901414393e+01 2.3024009749552858e+00 0 0 0
129 2 8.1852945960552270e-01 2.3274927386795056e+01 4.6433349775625370e+00 0 0 0
130 2 2.4527528759916675e+00 2.3340272770252824e+01 6.9554544064471902e+00 0 0 0
131 2 4.0854473770637103e+00 2.3429832485324301e+01 2.2802234096745853e+00 0 0 0
132 2 3.2692698896451535e+00 2.3383124812793888e+01 4.6169237538583072e+00 0 0 0
133 2 4.9009248528913441e+00 2.3479898785820275e+01 6.9391622912813302e+00 0 0 0
182 2 3.5932823474819318e-03 2.1253533909998097e+01 3.4925138468522849e+00 0 0 0
134 2 6.5817660125469715e+00 2.1562052626805770e+01 5.8022893309236672e+00 0 0 0
135 2 5.7600210505451885e+00 2.1509718950334658e+01 1.1390257573054730e+00 0 0 0
136 2 7.4036750425626821e+00 2.1615323685714966e+01 3.4721756266143533e+00 0 0 0
137 2 9.0483667512677730e+00 2.1722582653896144e+01 5.8077134024602408e+00 0 0 0
138 2 8.2257452659881949e+00 2.1669009597369701e+01 1.1426349910348241e+00 0 0 0
139 2 9.8712680763535960e+00 2.1776176546149621e+01 3.4789726903016267e+00 0 0 0
140 2 6.5348020171263519e+00 2.3582528920373338e+01 2.2747568952346584e+00 0 0 0
141 2 5.7176979234609098e+00 2.3530551192548284e+01 4.6063693843412263e+00 0 0 0
142 2 7.3524067091371066e+00 2.3635035202504763e+01 6.9384554581510276e+00 0 0 0
143 2 8.9913070123130527e+00 2.3739598055846724e+01 2.2807574632031153e+00 0 0 0
144 2 8.1714698804109229e+00 2.3687233791862042e+01 4.6093505673412203e+00 0 0 0
145 2 9.8119324732627220e+00 2.3792114987233600e+01 6.9465550658080248e+00 0 0 0
146 2 1.6107684205010084e+00 2.5315183327726327e+01 5.7707149035376331e+00 0 0 0
147 2 8.0326103302637242e-01 2.5277963162207531e+01 1.1276394970589214e+00 0 0 0
148 2 2.4202580798499342e+00 2.5358341151348128e+01 3.4268684804479088e+00 0 0 0
149 2 4.0360216039608217e+00 2.5456240055107237e+01 5.7432049050662064e+00 0 0 0
150 2 3.2287284347715688e+00 2.5404955211083514e+01 1.0864448646564648e+00 0 0 0
151 2 4.8460239504554634e+00 2.5506141176307707e+01 3.4103359760588869e+00 0 0 0
152 2 1.5621290042210532e+00 2.7332040784345264e+01 2.2211567461654598e+00 0 0 0
153 2 1.4759350151498629e+00 2.9364365005642455e+01 5.6102942833559029e+00 0 0 0
154 2 7.0043762115997976e-01 2.9336587390198410e+01 9.9484459602401820e-01 0 0 0
155 2 7.6825967246760940e-01 2.7295380240240927e+01 4.5805812551517322e+00 0 0 0
156 2 2.3597421040043529e+00 2.7379201008763008e+01 6.8693391536246997e+00 0 0 0
157 2 3.9547692446074971e+00 2.7487289118643531e+01 2.2065430006202655e+00 0 0 0
158 2 2.2345142531789661e+00 2.9412320245042348e+01 3.2733612444021727e+00 0 0 0
159 2 3.7921418615843563e+00 2.9530684708209233e+01 5.6679193349467942e+00 0 0 0
160 2 3.0222567903269413e+00 2.9459817605936415e+01 9.6724246429939809e-01 0 0 0
161 2 3.1547071556189321e+00 2.7437148310700533e+01 4.5339422599438057e+00 0 0 0
162 2 4.7548260557694109e+00 2.7541317418755213e+01 6.8733917018736133e+00 0 0 0
163 2 4.5720496999999174e+00 2.9583166624496624e+01 3.3702742112988466e+00 0 0 0
164 2 6.4669734877816625e+00 2.5609128183670844e+01 5.7433161824486989e+00 0 0 0
165 2 5.6560515423285560e+00 2.5557685352081350e+01 1.0787600828268598e+00 0 0 0
166 2 7.2805628437508538e+00 2.5659070808098761e+01 3.4158156385702978e+00 0 0 0
167 2 8.9113030243104259e+00 2.5759765455703597e+01 5.7562660893436144e+00 0 0 0
168 2 8.0952717395526079e+00 2.5709291577153564e+01 1.0888412674941204e+00 0 0 0
169 2 9.7293845891824517e+00 2.5810044887147800e+01 3.4298168757218273e+00 0 0 0
170 2 6.3605872237210530e+00 2.7639587010343586e+01 2.2290848861284878e+00 0 0 0
171 2 6.1725904255658284e+00 2.9668311822314493e+01 5.7465966224198342e+00 0 0 0
172 2 5.3745935815427419e+00 2.9625637548713986e+01 1.0659127441972627e+00 0 0 0
173 2 5.5549066077870526e+00 2.7592649401560234e+01 4.5499314339479611e+00 0 0 0
174 2 7.1682698890236694e+00 2.7687140147514864e+01 6.9013934946838136e+00 0 0 0
175 2 8.7896129095463333e+00 2.7781480160410958e+01 2.2560146104557277e+00 0 0 0
176 2 6.9752111410037916e+00 2.9711370570400973e+01 3.4296175722220741e+00 0 0 0
177 2 8.5980771520655690e+00 2.9798857083361519e+01 5.7825592465954196e+00 0 0 0
178 2 7.7870603068227009e+00 2.9754900829961521e+01 1.1105288937134512e+00 0 0 0
179 2 7.9771031915117225e+00 2.7734453939643213e+01 4.5788833280854808e+00 0 0 0
180 2 9.6042774215295861e+00 2.7829168634548854e+01 6.9260871023348782e+00 0 0 0
181 2 9.4115519194764747e+00 2.9843647822782593e+01 3.4593149524465940e+00 0 0 0
183 2 1.4568737640255196e+00 3.1417984235042120e+01 6.9364190926418976e+00 0 0 0
184 2 3.2777715718602427e+00 3.1505094337418551e+01 2.2877664044926487e+00 0 0 0
185 2 1.3486008852146159e+00 3.3402552828201465e+01 3.4927819216175990e+00 0 0 0
186 2 3.0739037136357186e+00 3.3483807150606026e+01 5.8386888879479431e+00 0 0 0
187 2 2.2095852125205706e+00 3.3432474838699591e+01 1.1653781428811927e+00 0 0 0
188 2 2.3989865233581402e+00 3.1463132406617305e+01 4.6108459782552567e+00 0 0 0
189 2 4.1439365600830778e+00 3.1557118301740317e+01 6.9671581410157000e+00 0 0 0
190 2 3.9261048746539178e+00 3.3535872534024541e+01 3.5125839888651789e+00 0 0 0
193 2 4.7740142071294285e+00 3.3589695719050709e+01 1.1894995601355323e+00 0 0 0
237 2 5.1332846872221383e-01 3.1413320941844116e+01 2.2947469423914031e+00 0 0 0
238 2 4.8146140992260533e-01 3.3386923158388548e+01 5.8223604736179340e+00 0 0 0
191 2 5.8315705252791412e+00 3.1658460207865044e+01 2.3247986436777728e+00 0 0 0
192 2 5.6204922228744234e+00 3.3639412023832357e+01 5.8610518330059609e+00 0 0 0
194 2 4.9923202247266349e+00 3.1609157894689702e+01 4.6467082244227651e+00 0 0 0
195 2 6.6696621629834922e+00 3.1704541832250477e+01 1.4866006960509992e-03 0 0 1
196 2 8.3305438781226435e+00 3.1797999621880049e+01 2.3435819099453465e+00 0 0 0
197 2 6.4593732947585938e+00 3.3691941373349167e+01 3.5346992241163329e+00 0 0 0
198 2 8.1291115774067144e+00 3.3792704223328315e+01 5.8753948442105264e+00 0 0 0
199 2 7.2949714897419682e+00 3.3743288356789314e+01 1.2080484971640117e+00 0 0 0
200 2 7.5016961753462894e+00 3.1751126594169449e+01 4.6697482497802101e+00 0 0 0
201 2 9.1583670154453021e+00 3.1843976716011422e+01 1.7067640032074231e-02 0 0 0
202 2 8.9588252920035956e+00 3.3843026469304242e+01 3.5473853534774915e+00 0 0 0
234 2 9.7862899464580195e+00 3.3892650930936860e+01 1.2196849165812809e+00 0 0 0
203 2 1.2389569030308674e+00 3.9489094960765762e+01 6.9843410683205525e+00 0 0 0
204 2 2.9324723229209662e+00 3.9467569641843930e+01 2.3575116973244610e+00 0 0 0
205 2 2.0594293718417362e+00 3.9476395069226548e+01 4.6547751585592358e+00 0 0 0
206 2 3.7435505692664064e+00 3.9559218553632803e+01 1.7752109776969505e-02 0 0 1
208 2 4.5479745000597891e+00 3.9602571653973932e+01 4.6763127008615539e+00 0 0 0
209 2 1.2842103503480506e+00 3.5418807727793677e+01 7.0498057943981186e-03 0 0 0
210 2 2.9681103336105092e+00 3.5486350023951047e+01 2.3461273641814060e+00 0 0 0
211 2 1.2554008176774836e+00 3.7427506978598174e+01 3.4980150890964237e+00 0 0 0
212 2 2.9231900649729159e+00 3.7509001844088417e+01 5.8451242112713961e+00 0 0 0
213 2 2.0858064965508114e+00 3.7471638215537737e+01 1.1666219012855947e+00 0 0 0
214 2 2.1305685103083789e+00 3.5447566062627025e+01 4.6763504010798336e+00 0 0 0
215 2 3.8126478149374963e+00 3.5535860238833855e+01 2.4792852652391346e-02 0 0 0
216 2 3.7664889550954643e+00 3.7524073020164458e+01 3.5262213619953693e+00 0 0 0
224 2 4.5934348885598260e+00 3.7586994923835881e+01 1.1927131354106870e+00 0 0 0
225 2 4.6584094537152385e+00 3.5578466498357010e+01 4.6992121741453134e+00 0 0 0
239 2 4.2798214955974745e-01 3.9433432414353845e+01 2.3229666051425371e+00 0 0 0
240 2 4.2400490372667216e-01 3.7421619548320535e+01 5.8299563753027277e+00 0 0 0
241 2 4.3479335620421505e-01 3.5396742932654377e+01 2.3305038537544953e+00 0 0 0
207 2 5.4002853146078751e+00 3.9644643519165392e+01 2.3504498668211893e+00 0 0 0
217 2 6.2147562535936798e+00 3.9709090346712848e+01 1.1482841176954750e-02 0 0 1
218 2 7.8683723768950786e+00 3.9811008023478109e+01 2.3472273251870366e+00 0 0 0
219 2 7.0319527346539736e+00 3.9759260905845473e+01 4.6753830680835025e+00 0 0 0
220 2 8.6871635242282448e+00 3.9869564841230684e+01 1.4656315420303379e-02 0 0 0
221 2 9.5083601579710866e+00 3.9922175992347896e+01 4.6796295260924694e+00 0 0 0
222 2 5.4934602703034372e+00 3.5634284539296580e+01 2.3712873974439255e+00 0 0 0
223 2 5.4238630658527613e+00 3.7641979650735493e+01 5.8595484554843384e+00 0 0 0
226 2 6.3296986094708423e+00 3.5689264866428488e+01 4.5141985666449669e-02 0 0 0
227 2 7.9958065655946937e+00 3.5794451184534033e+01 2.3843180645964024e+00 0 0 0
228 2 6.2594125895461001e+00 3.7688590126922705e+01 3.5336574247668180e+00 0 0 0
229 2 7.9137230785648978e+00 3.7802262515218537e+01 5.8680990146068606e+00 0 0 0
230 2 7.0858026773980498e+00 3.7747832217080855e+01 1.2025515072386073e+00 0 0 0
231 2 7.1658890368708121e+00 3.5740200291374947e+01 4.7133224130191298e+00 0 0 0
232 2 8.8254859067191340e+00 3.5847407196743255e+01 5.6318961320293161e-02 0 0 0
233 2 8.7433891293221766e+00 3.7853821236302174e+01 3.5399510199062965e+00 0 0 0
235 2 9.5680893671001783e+00 3.7909593988253008e+01 1.2099114167935117e+00 0 0 0
236 2 9.6543534897455849e+00 3.5898650296578005e+01 4.7225693821200290e+00 0 0 0
242 2 1.1105372726565216e+01 1.6655473881800225e+00 3.4864037301909097e+00 0 0 0
243 2 1.2750312333376401e+01 1.7729489293345646e+00 5.8215836482419556e+00 0 0 0
244 2 1.1931673554510427e+01 1.7191575975405742e+00 1.1572270120510011e+00 0 0 0
245 2 1.3574980648493588e+01 1.8266385462719450e+00 3.4929169822330453e+00 0 0 0
246 2 1.4400158594281644e+01 1.8804955839130848e+00 1.1637206559513160e+00 0 0 0
247 2 1.1043373440179099e+01 3.6813604849934789e+00 6.9557044259741927e+00 0 0 0
248 2 1.2689087287942343e+01 3.7871339253700516e+00 2.2982108018098679e+00 0 0 0
249 2 1.1863612747135880e+01 3.7342619659678689e+00 4.6267566773653410e+00 0 0 0
250 2 1.3513544834399486e+01 3.8396126893745217e+00 6.9631062261453822e+00 0 0 0
251 2 1.4338173431285181e+01 3.8928921602422446e+00 4.6342149433738760e+00 0 0 0
298 2 1.0280116597222193e+01 1.6121687263804654e+00 5.8144552555894986e+00 0 0 0
299 2 1.0222220858714248e+01 3.6301348599979284e+00 2.2914271542062763e+00 0 0 0
252 2 1.5222705558130228e+01 1.9345768108260328e+00 5.8282594301575132e+00 0 0 0
253 2 1.6047760048252449e+01 1.9884501775258450e+00 3.4990338360661486e+00 0 0 0
254 2 1.7697784356641964e+01 2.0947802772152895e+00 5.8335595621628400e+00 0 0 0
255 2 1.6873205329062735e+01 2.0419816704881972e+00 1.1694892124638294e+00 0 0 0
256 2 1.8523616998566613e+01 2.1457262112513034e+00 3.5033727996124111e+00 0 0 0
257 2 1.9349791090928491e+01 2.1938959681976278e+00 1.1725782266945035e+00 0 0 0
258 2 1.5165611003973819e+01 3.9462437830073656e+00 2.3055494227415978e+00 0 0 0
259 2 1.5993326336529069e+01 3.9995179375985543e+00 6.9708793416515178e+00 0 0 0
260 2 1.7651967075178746e+01 4.1059638719113050e+00 2.3143484401297383e+00 0 0 0
261 2 1.6821733396374615e+01 4.0529879068693244e+00 4.6424247435911719e+00 0 0 0
262 2 1.8482773339738632e+01 4.1576024547219905e+00 6.9803747815927881e+00 0 0 0
263 2 1.9314272191265253e+01 4.2071442341610874e+00 4.6522915615001654e+00 0 0 0
294 2 1.9376591295382791e+01 1.7692287713735344e-01 4.6911958307208215e+00 0 0 0
296 2 1.8555534135487452e+01 1.2895188538171376e-01 3.0945086745632695e-02 0 0 0
301 2 1.7734940024999094e+01 7.7918353130699794e-02 2.3638281664617544e+00 0 0 0
302 2 1.6913413261175172e+01 2.5761666321013163e-02 4.6953878997932703e+00 0 0 0
264 2 1.0954498188460724e+01 5.6986237267089885e+00 3.4421367776851701e+00 0 0 0
265 2 1.2599481970897182e+01 5.7993428644939877e+00 5.7796509566585295e+00 0 0 0
266 2 1.1776247610595794e+01 5.7487246016810980e+00 1.1138799663270020e+00 0 0 0
267 2 1.3424438916735888e+01 5.8507739313921761e+00 3.4512323647877041e+00 0 0 0
269 2 1.4251272384503828e+01 5.9019673784422118e+00 1.1226586591367425e+00 0 0 0
270 2 1.0824675581823769e+01 7.7139458247153492e+00 6.9407343853038261e+00 0 0 0
271 2 1.2466747875581589e+01 7.8103570531441688e+00 2.2864492873974109e+00 0 0 0
272 2 1.0635543541195274e+01 9.7256423878919858e+00 3.4728297615616226e+00 0 0 0
273 2 1.2275391714820241e+01 9.8169221570673457e+00 5.8136578629296327e+00 0 0 0
274 2 1.1453937867835613e+01 9.7710945100448576e+00 1.1463711634070570e+00 0 0 0
275 2 1.1645274193927539e+01 7.7621269127301122e+00 4.6140227534544138e+00 0 0 0
276 2 1.3290963362277878e+01 7.8587058369529483e+00 6.9527377857717836e+00 0 0 0
278 2 1.3097932767143828e+01 9.8627631576153387e+00 3.4863920165580535e+00 0 0 0
279 2 1.4747544936728413e+01 9.9545387081650265e+00 5.8253960978199686e+00 0 0 0
280 2 1.3921349713201558e+01 9.9088018854743325e+00 1.1589250424289017e+00 0 0 0
281 2 1.4117747439098791e+01 7.9074661245643414e+00 4.6246563973410115e+00 0 0 0
295 2 1.0006913701551779e+01 7.6666781200081653e+00 2.2728420870649781e+00 0 0 0
300 2 1.0134389432487543e+01 5.6473582784779301e+00 5.7699855535632594e+00 0 0 0
268 2 1.5079869538533124e+01 5.9535218998411379e+00 5.7882300248882421e+00 0 0 0
277 2 1.4946265722795220e+01 7.9565773247603531e+00 2.2963456275455485e+00 0 0 0
282 2 1.5910337629817576e+01 6.0056071390953498e+00 3.4599026970966236e+00 0 0 0
283 2 1.7577576972360564e+01 6.1101911831296176e+00 5.7986083185896016e+00 0 0 0
284 2 1.6742896699944943e+01 6.0578199450091672e+00 1.1319704752066835e+00 0 0 0
285 2 1.8414407988304454e+01 6.1627998749907862e+00 3.4718339718210491e+00 0 0 0
286 2 1.9253211386526523e+01 6.2139398482805275e+00 1.1453747053805621e+00 0 0 0
287 2 1.5777786560919912e+01 8.0059046210445750e+00 6.9622634435370996e+00 0 0 0
288 2 1.7449222051037552e+01 8.1064093769553764e+00 2.3071672549658628e+00 0 0 0
289 2 1.5575879261544729e+01 1.0000528918873712e+01 3.4981579053180170e+00 0 0 0
290 2 1.7239753542046191e+01 1.0092740156892402e+01 5.8389828374134645e+00 0 0 0
291 2 1.6405175484965302e+01 1.0046829265369588e+01 1.1712834607992968e+00 0 0 0
292 2 1.6612260409128670e+01 8.0556377307626477e+00 4.6344325025405686e+00 0 0 0
293 2 1.8290621253180944e+01 8.1576656555281701e+00 6.9746774457763800e+00 0 0 0
297 2 1.9136416184607150e+01 8.2105110505220864e+00 4.6493848370859077e+00 0 0 0
303 2 1.0396874374695217e+01 1.1728741543757071e+01 2.3966251154204303e-02 0 0 0
304 2 1.2040345039514607e+01 1.1820184671842798e+01 2.3643034705924566e+00 0 0 0
305 2 1.0204133851570749e+01 1.3732572761218425e+01 3.5509727670252751e+00 0 0 0
306 2 1.1849908454088064e+01 1.3829367730051112e+01 5.8907589167806487e+00 0 0 0
307 2 1.1028246669345098e+01 1.3781084898565664e+01 1.2236825524273742e+00 0 0 0
308 2 1.1219381562078429e+01 1.1774497054716276e+01 4.6909392637788239e+00 0 0 0
309 2 1.2858665750425580e+01 1.1865769075549510e+01 3.8114353242634534e-02 0 0 0
310 2 1.4492845556031025e+01 1.1955742732640019e+01 2.3823798709414761e+00 0 0 0
311 2 1.2669966774590453e+01 1.3877291805449012e+01 3.5644661911232656e+00 0 0 0
312 2 1.4302459549805405e+01 1.3972532150100415e+01 5.9077814999057399e+00 0 0 0
313 2 1.3487483036618134e+01 1.3924940900278203e+01 1.2388614309207278e+00 0 0 0
314 2 1.3676498936365979e+01 1.1910903286749049e+01 4.7066886661811216e+00 0 0 0
315 2 1.5303809036131765e+01 1.1999752745898807e+01 5.8732730088660444e-02 0 0 0
316 2 1.6925389864768370e+01 1.2086635229952702e+01 2.4118808462932737e+00 0 0 0
317 2 1.5116348591858543e+01 1.4019641825387646e+01 3.5836667306765650e+00 0 0 0
318 2 1.6734424515632920e+01 1.4113572531040381e+01 5.9312262757382497e+00 0 0 0
319 2 1.5927037329065859e+01 1.4066264746391411e+01 1.2603275122913389e+00 0 0 0
320 2 1.6115573617261838e+01 1.2043295439028528e+01 4.7308702922744130e+00 0 0 0
321 2 1.7722115358486242e+01 1.2128810656624132e+01 9.4554613329222201e-02 0 0 0
322 2 1.9322829105049173e+01 1.2213073294664255e+01 2.4757746145161805e+00 0 0 0
323 2 1.7541965653943542e+01 1.4160260158473378e+01 3.6092150452609846e+00 0 0 0
324 2 1.9143483504328817e+01 1.4261544519689817e+01 5.9545514524454468e+00 0 0 0
325 2 1.8345407757960182e+01 1.4207226978208386e+01 1.2874280117830552e+00 0 0 0
326 2 1.8523763073521184e+01 1.2171637834687578e+01 4.7774085564164430e+00 0 0 0
360 2 1.9774703968772695e+01 1.0243369048248757e+01 5.8664328725029646e+00 0 0 0
361 2 1.8078263848326944e+01 1.0140241057299702e+01 3.5147900423211267e+00 0 0 0
362 2 1.8918137124413224e+01 1.0189904647052346e+01 1.1914569482020305e+00 0 0 0
327 2 1.0071557109320791e+01 1.5740462005775717e+01 5.7599281728576548e-02 0 0 0
328 2 1.1720044104400170e+01 1.5842364434422842e+01 2.3961449860512354e+00 0 0 0
329 2 9.9842511771010560e+00 1.7750573522609876e+01 3.5385132171924734e+00 0 0 0
330 2 1.1633341303842256e+01 1.7856068544349373e+01 5.8760274861672759e+00 0 0 0
331 2 1.0809314382319645e+01 1.7803412725852343e+01 1.2102343431065439e+00 0 0 0
332 2 1.0896550846254415e+01 1.5791554101389824e+01 4.7237634845997896e+00 0 0 0
333 2 1.2541768044734376e+01 1.5892966427988702e+01 6.8739009795534475e-02 0 0 0
334 2 1.4180396824816052e+01 1.5993592543975733e+01 2.4085549764791541e+00 0 0 0
335 2 1.2456295881611155e+01 1.7908624119185244e+01 3.5477463345255376e+00 0 0 0
336 2 1.4099594578140378e+01 1.8013179735255417e+01 5.8851671575652649e+00 0 0 0
337 2 1.3278458771891561e+01 1.7960933487377670e+01 1.2194913115308621e+00 0 0 0
338 2 1.3361701979912333e+01 1.5943478578597643e+01 4.7355451239002324e+00 0 0 0
339 2 9.9233874428718298e+00 1.9762407413617126e+01 1.3790226018627486e-02 0 0 0
340 2 1.1571596102995109e+01 1.9869721952620832e+01 2.3507124879518919e+00 0 0 0
341 2 1.0747688057882019e+01 1.9816106675986770e+01 4.6792908360107806e+00 0 0 0
342 2 1.2395296096651629e+01 1.9923188620484108e+01 2.2153366798576275e-02 0 0 0
343 2 1.4041501440385433e+01 2.0030178508047882e+01 2.3587067035240659e+00 0 0 0
344 2 1.3218620908948633e+01 1.9976655338992821e+01 4.6875631978893360e+00 0 0 0
345 2 1.4997375313284195e+01 1.6043587074905023e+01 8.1603390188142139e-02 0 0 0
346 2 1.6626512254025670e+01 1.6143217054390639e+01 2.4206064219666596e+00 0 0 0
347 2 1.4919547507694315e+01 1.8065435291405379e+01 3.5563803731273875e+00 0 0 0
348 2 1.6557232239670171e+01 1.8169117001212300e+01 5.8912600499413621e+00 0 0 0
349 2 1.5738926729968846e+01 1.8117311928473427e+01 1.2272104037069544e+00 0 0 0
350 2 1.5812325057508355e+01 1.6093755915720415e+01 4.7482917100493784e+00 0 0 0
351 2 1.7438940099122796e+01 1.6192882071312898e+01 9.1930192158841587e-02 0 0 0
352 2 1.9058954918334472e+01 1.6293621002617812e+01 2.4223210426600232e+00 0 0 0
353 2 1.7374127567060270e+01 1.8221128926563502e+01 3.5596789886288445e+00 0 0 0
354 2 1.9007152412388109e+01 1.8321074201954957e+01 5.8868631590242888e+00 0 0 0
355 2 1.8191040349213552e+01 1.8271482022430156e+01 1.2271225390609444e+00 0 0 0
356 2 1.8248657347459332e+01 1.6244544659099674e+01 4.7545865297883250e+00 0 0 0
357 2 1.4864207478295533e+01 2.0083575169272695e+01 2.9655878307365487e-02 0 0 0
359 2 1.5686471163131916e+01 2.0136948572108064e+01 4.6942233164788396e+00 0 0 0
363 2 1.1517997747852931e+01 2.1883304399653674e+01 5.8159332929610210e+00 0 0 0
364 2 1.0694409197519638e+01 2.1829782312102189e+01 1.1503631073184688e+00 0 0 0
365 2 1.2341849723787458e+01 2.1936895169332836e+01 3.4874261049453610e+00 0 0 0
366 2 1.3990421945465776e+01 2.2044375640597838e+01 5.8242986833278207e+00 0 0 0
367 2 1.3165936433821063e+01 2.1990613885140704e+01 1.1588500495497245e+00 0 0 0