LAMMPS data file via write_data, version 11 Aug 2017, timestep = 1000

3301 atoms
2 atom types

0.0000000000000000e+00 6.6963006710480997e+01 xlo xhi
0.0000000000000000e+00 6.0570318570740000e+01 ylo yhi
0.0000000000000000e+00 9.4699992267239992e+00 zlo zhi

Masses

1 12.0107
2 55.845

Atoms # atomic

1 2 3.0859361907540115e+00 1.0611251893669016e+00 4.1003656952545002e+00 0 0 0
2 2 1.9957987991060586e+00 1.0477615146562120e+00 1.8364213234579141e+00 0 0 0
3 2 5.9905204138789758e-01 1.0360470261735042e+00 3.7332517664107714e+00 0 0 0
4 2 4.3507034292587390e+00 1.0888915672006059e+00 1.9544723777615280e+00 0 0 0
6 2 3.6699080141145135e+00 3.0845134802619687e+00 6.6351414726161806e-01 0 0 0
7 2 2.4706011355359667e+00 3.1192249083303247e+00 2.8421991798711326e+00 0 0 0
8 2 1.2312883497033420e+00 3.0048373870833740e+00 2.2757925140291166e-01 0 0 0
157 2 2.8646391294882747e-02 3.0481795377870053e+00 2.4042780365584520e+00 0 0 0
3301 1 1.2296768395182398e+00 1.0328521909303536e+00 2.2801130556015739e-01 0 0 0
5 2 4.8939839125703015e+00 3.1328992834677893e+00 3.2271814117457707e+00 0 0 0
9 2 6.7372219528925648e+00 1.1777428981869249e+00 2.3734756957048022e+00 0 0 0
12 2 7.9192253108007939e+00 1.2306276513472350e+00 2.0734356823650210e-01 0 0 0
13 2 8.5176192764156191e+00 3.2758886426599476e+00 1.4793842680379545e+00 0 0 0
14 2 7.3096449144020985e+00 3.2246764476931995e+00 3.6414361103765374e+00 0 0 0
15 2 6.0967845862268959e+00 3.1690371270932460e+00 1.0611344663849001e+00 0 0 0
85 2 5.5031843673797578e+00 1.1311052492581715e+00 4.5291188103561044e+00 0 0 0
11 2 9.1495466945427371e+00 1.2851319053628436e+00 2.7937858785167671e+00 0 0 0
16 2 1.1572200096978905e+01 1.4003131512483142e+00 3.2190728584362942e+00 0 0 0
17 2 1.0351215461439974e+01 1.3426190963948592e+00 6.3522459061420888e-01 0 0 0
18 2 1.2782069067192358e+01 1.4591107631630913e+00 1.0641852623282970e+00 0 0 0
19 2 9.7296085962588013e+00 3.3339463446472273e+00 4.0587796248250410e+00 0 0 0
20 2 1.0940185293677409e+01 3.3901979044515973e+00 1.9016322169294526e+00 0 0 0
21 2 1.3365939960332451e+01 3.5064077567891134e+00 2.3283552762809983e+00 0 0 0
97 2 1.2153020668425242e+01 3.4487265005572616e+00 4.4826861277737349e+00 0 0 0
23 2 3.0556697808191373e+00 5.1079421088067107e+00 4.0968477675132675e+00 0 0 0
24 2 1.8345852725022023e+00 5.0515832280324124e+00 1.5010006433598284e+00 0 0 0
25 2 4.2602016589312859e+00 5.1227725926653340e+00 1.9225909701656125e+00 0 0 0
27 2 3.6389190628635770e+00 7.1044490679506573e+00 6.1311076075884974e-01 0 0 0
28 2 2.4335907020823826e+00 7.0739218521977207e+00 2.7823283472999778e+00 0 0 0
29 2 1.2296557841295070e+00 7.0554704132516015e+00 2.2455077684502336e-01 0 0 0
149 2 6.2881767276902212e-01 5.0649635420255272e+00 3.6724185762779546e+00 0 0 0
150 2 2.2164333053500636e-02 7.0605571332909589e+00 2.3916291344007679e+00 0 0 0
26 2 4.8428575166619394e+00 7.1591823036858422e+00 3.1843469583780255e+00 0 0 0
30 2 6.6782359130970548e+00 5.2155846843551448e+00 2.3284997871086128e+00 0 0 0
33 2 7.8837654333450411e+00 5.2685719231019723e+00 1.6704277638953199e-01 0 0 0
34 2 8.4494622044125638e+00 7.3218529686040883e+00 1.4287784080307391e+00 0 0 0
35 2 7.2476970339030906e+00 7.2659594739458031e+00 3.5894155105060341e+00 0 0 0
36 2 6.0444492401486523e+00 7.2082755718171070e+00 1.0171184470397638e+00 0 0 0
106 2 5.4727019499960967e+00 5.1693068391524752e+00 4.4936112356625388e+00 0 0 0
32 2 9.0936762433550129e+00 5.3263759487502327e+00 2.7439268022154915e+00 0 0 0
37 2 1.1512036317040508e+01 5.4403634345153522e+00 3.1658976675467869e+00 0 0 0
38 2 1.0301189318251382e+01 5.3825683698173021e+00 5.8610458569561075e-01 0 0 0
39 2 1.2722333946757109e+01 5.4971949981216994e+00 1.0112647158467150e+00 0 0 0
47 2 9.6536653023329269e+00 7.3796045194376525e+00 4.0064885747680590e+00 0 0 0
50 2 1.0858453201063297e+01 7.4352236544301151e+00 1.8506485923777773e+00 0 0 0
51 2 1.3274306918065404e+01 7.5470460461457272e+00 2.2786989797043966e+00 0 0 0
127 2 1.2065682746931328e+01 7.4916210524760407e+00 4.4317454292925023e+00 0 0 0
40 2 3.0170178983704203e+00 9.0986257303241214e+00 4.0446691860059989e+00 0 0 0
41 2 1.8239883563155050e+00 9.0651953698220833e+00 1.4964030886466182e+00 0 0 0
42 2 4.2115897035411463e+00 9.1444317957995214e+00 1.8676345462802053e+00 0 0 0
57 2 3.5709503534543416e+00 1.1137085293107230e+01 5.4234099950027137e-01 0 0 0
58 2 2.3935257662848608e+00 1.1094100144470280e+01 2.7370811925630849e+00 0 0 0
59 2 1.2211997951957512e+00 1.1064006625783179e+01 2.2107839545059141e-01 0 0 0
151 2 6.2673755566968559e-01 9.0596768195787973e+00 3.6815079385688172e+00 0 0 0
158 2 4.7319255699469071e-02 1.1082193415247435e+01 2.4403968457099001e+00 0 0 0
43 2 6.5979837083825679e+00 9.2625946418936884e+00 2.2717015134056719e+00 0 0 0
46 2 7.7922433248838665e+00 9.3225901599173753e+00 1.1205665692373595e-01 0 0 0
55 2 4.7471156898895943e+00 1.1196868128497748e+01 3.1016037860187091e+00 0 0 0
64 2 7.1081367967649465e+00 1.1328730096960403e+01 3.5241382758416306e+00 0 0 0
65 2 5.9289112364682319e+00 1.1262775880945512e+01 9.4508939822778082e-01 0 0 0
119 2 5.4048032785909976e+00 9.2056179913318950e+00 4.4357210215083818e+00 0 0 0
45 2 8.9879916636704102e+00 9.3795726756713265e+00 2.6906202019753227e+00 0 0 0
48 2 1.1387337579756288e+01 9.4892571432711499e+00 3.1198953580599160e+00 0 0 0
49 2 1.0186478322634803e+01 9.4349093785929359e+00 5.3716347436612533e-01 0 0 0
53 2 1.2591091764348647e+01 9.5430507867997409e+00 9.6870834046142629e-01 0 0 0
54 2 2.9238548372747801e+00 1.3145984347719200e+01 3.9115462518442170e+00 0 0 0
56 2 1.7629347125100561e+00 1.3119917031576959e+01 1.4193796849813929e+00 0 0 0
60 2 4.0579407778301002e+00 1.3194955534224242e+01 1.7292682199401495e+00 0 0 0
152 2 6.6253212807347084e-01 1.3114270504111133e+01 3.7479369903978323e+00 0 0 0
61 2 6.3525142536529247e+00 1.3341997902708320e+01 2.2020653295929740e+00 0 0 0
62 2 8.2933378666368078e+00 1.1385769990495289e+01 1.3752756928097951e+00 0 0 0
66 2 8.7077157804124994e+00 1.3444215148523931e+01 2.6665365053412264e+00 0 0 0
67 2 7.5297768494096067e+00 1.3395269835290540e+01 7.2767881301104870e-02 0 0 0
138 2 5.2143067448530411e+00 1.3256930778349755e+01 4.3299549418046670e+00 0 0 0
68 2 9.4820898442067278e+00 1.1439646603568615e+01 3.9618484647999814e+00 0 0 0
69 2 1.1098461675887474e+01 1.3540076777709292e+01 3.1124548269428884e+00 0 0 0
70 2 9.9019263279898357e+00 1.3492572960073437e+01 5.2387709485760481e-01 0 0 0
71 2 1.0675772385645825e+01 1.1491251723358422e+01 1.8141307581349819e+00 0 0 0
72 2 1.3075180002323247e+01 1.1593198799683064e+01 2.2524871493003173e+00 0 0 0
75 2 1.2302047631936311e+01 1.3588263690523618e+01 9.6554526377649075e-01 0 0 0
148 2 1.1873495313938356e+01 1.1542458417504898e+01 4.4009093709616351e+00 0 0 0
76 2 3.0169980153494804e+00 1.0611786392917422e+00 8.8494389287721802e+00 0 0 0
77 2 1.8608685682924295e+00 1.0406914754433216e+00 6.1925041529206579e+00 0 0 0
78 2 4.6411605141778806e-01 1.0356220492146706e+00 8.0892967078084492e+00 0 0 0
79 2 4.2684665992610631e+00 1.0923804427872190e+00 6.6882337159000365e+00 0 0 0
81 2 3.6660889042540239e+00 3.0949147630674125e+00 5.3774624916418894e+00 0 0 0
82 2 2.4320953605139231e+00 3.0590123452298172e+00 7.5198592213047766e+00 0 0 0
83 2 1.2303639009883427e+00 3.0670589002509163e+00 4.9628167028592909e+00 0 0 0
147 2 1.3075307001580940e+01 1.1593284492114984e+01 6.9875344289382033e+00 0 0 0
10 2 5.4799399082587792e+00 1.1316273472387504e+00 9.2492865467376628e+00 0 0 0
80 2 4.8613478612252381e+00 3.1249369451467803e+00 7.9590929975635394e+00 0 0 0
84 2 6.7041598141013514e+00 1.1783559220945521e+00 7.1007976309612779e+00 0 0 0
87 2 7.9286044883922138e+00 1.2299454910888372e+00 4.9488207381069440e+00 0 0 0
88 2 8.5132388882141203e+00 3.2775175155469793e+00 6.2146264293764943e+00 0 0 0
89 2 7.2953971881527648e+00 3.2222169490564672e+00 8.3694933891584036e+00 0 0 0
90 2 6.0883228541515599e+00 3.1732681768634405e+00 5.8003747552525686e+00 0 0 0
22 2 1.2149873284485459e+01 3.4483809028304915e+00 9.2163162401792640e+00 0 0 0
86 2 9.1356071448224903e+00 1.2853503838738782e+00 7.5251943108717327e+00 0 0 0
91 2 1.1566164239263315e+01 1.4004543520297132e+00 7.9525595377932579e+00 0 0 0
92 2 1.0355236631954186e+01 1.3421970278370228e+00 5.3729147397544930e+00 0 0 0
93 2 1.2783780230597275e+01 1.4589027521026752e+00 5.8003962102710451e+00 0 0 0
94 2 9.7228089099514960e+00 3.3330423180529380e+00 8.7908699801879884e+00 0 0 0
95 2 1.0937845862919740e+01 3.3908597353294834e+00 6.6367423049942493e+00 0 0 0
96 2 1.3364757622506451e+01 3.5066959359022518e+00 7.0633745226677265e+00 0 0 0
98 2 3.0471493469988302e+00 5.0676663451977957e+00 8.8175402813938728e+00 0 0 0
99 2 1.8328625131308831e+00 5.0710507389416657e+00 6.2494215512392293e+00 0 0 0
100 2 4.2566888641869403e+00 5.1208637850354934e+00 6.6547749634828328e+00 0 0 0
102 2 3.6414340049118432e+00 7.1193645282284841e+00 5.3575207020204161e+00 0 0 0
103 2 2.4372513190604654e+00 7.0724542451078349e+00 7.5279493384811822e+00 0 0 0
104 2 1.2296600133118807e+00 7.0649935777518378e+00 4.9595355215328354e+00 0 0 0
153 2 6.2748370076389437e-01 5.0452349637291674e+00 8.4205791305889779e+00 0 0 0
154 2 2.5847069580985094e-02 7.0616472926814406e+00 7.1370429816785999e+00 0 0 0
31 2 5.4662929821787616e+00 5.1611936227693320e+00 9.2269399616962939e+00 0 0 0
101 2 4.8439511933464701e+00 7.1545905229807829e+00 7.9188968041375025e+00 0 0 0
105 2 6.6738903373092056e+00 5.2164887156249460e+00 7.0641799864164527e+00 0 0 0
108 2 7.8861410590895638e+00 5.2719825869701404e+00 4.9043116238835864e+00 0 0 0
109 2 8.4502344860149599e+00 7.3236630332652055e+00 6.1646933210996018e+00 0 0 0
110 2 7.2474592139379190e+00 7.2649006987734390e+00 8.3250793368673524e+00 0 0 0
111 2 6.0464643293889413e+00 7.2118707650511533e+00 5.7533353560027303e+00 0 0 0
52 2 1.2065487001659143e+01 7.4913107070417908e+00 9.1667462024543998e+00 0 0 0
107 2 9.0912039395847675e+00 5.3266921566323386e+00 7.4783557267786129e+00 0 0 0
112 2 1.1510604460158005e+01 5.4404718019726257e+00 7.9006050713837279e+00 0 0 0
113 2 1.0302271861571334e+01 5.3840431779103541e+00 5.3219435540219244e+00 0 0 0
114 2 1.2722773992847614e+01 5.4978469203965279e+00 5.7466792505061681e+00 0 0 0
122 2 9.6534321308598354e+00 7.3790058490646997e+00 8.7415172872587839e+00 0 0 0
125 2 1.0858785889942080e+01 7.4360256038720340e+00 6.5859766993348297e+00 0 0 0
126 2 1.3274422196895589e+01 7.5474061077546759e+00 7.0138527552313104e+00 0 0 0
115 2 3.0188316957610057e+00 9.0977402918140626e+00 8.7824390263565970e+00 0 0 0
116 2 1.8265804890709361e+00 9.0657663794202978e+00 6.2352383896881189e+00 0 0 0
117 2 4.2142311113668942e+00 9.1489590211150134e+00 6.6076268112778420e+00 0 0 0
132 2 3.5710698498243110e+00 1.1136823036211776e+01 5.2770982152876575e+00 0 0 0
133 2 2.3951262919905103e+00 1.1094462606419093e+01 7.4735527971755040e+00 0 0 0
134 2 1.2212721126483737e+00 1.1062434671236932e+01 4.9561487792163046e+00 0 0 0
155 2 6.2923307528347172e-01 9.0589331514723810e+00 8.4202770838745931e+00 0 0 0
160 2 4.8920327663347134e-02 1.1081731969793859e+01 7.1768869321690909e+00 0 0 0
44 2 5.4054933219490326e+00 9.2032072867098194e+00 9.1700395749343890e+00 0 0 0
118 2 6.5998439347346487e+00 9.2635575757814053e+00 7.0077173845001655e+00 0 0 0
121 2 7.7922279169039923e+00 9.3233526324751210e+00 4.8467920398140709e+00 0 0 0
130 2 4.7485680838224615e+00 1.1198742918449874e+01 7.8385602347147216e+00 0 0 0
139 2 7.1091476281511019e+00 1.1329117804938917e+01 8.2596617387424480e+00 0 0 0
140 2 5.9292122567332886e+00 1.1263623061139441e+01 5.6807440939475242e+00 0 0 0
120 2 8.9889099180971339e+00 9.3801377257504939e+00 7.4263199415150716e+00 0 0 0
123 2 1.1387800437802731e+01 9.4894972581019879e+00 7.8552036356528685e+00 0 0 0
124 2 1.0186524894989422e+01 9.4353480394804148e+00 5.2721326824753936e+00 0 0 0
128 2 1.2591148679677396e+01 9.5432747330208691e+00 5.7036977055689073e+00 0 0 0
129 2 2.9241680400774741e+00 1.3146740834196953e+01 8.6468383854475519e+00 0 0 0
131 2 1.7632493072482913e+00 1.3119035256742119e+01 6.1542841708368625e+00 0 0 0
135 2 4.0581580337279961e+00 1.3194929991614012e+01 6.4642541718870064e+00 0 0 0
156 2 6.6273587013367985e-01 1.3115205365731798e+01 8.4827429043456934e+00 0 0 0
63 2 5.2146742047204446e+00 1.3258086107202644e+01 9.0655550652807459e+00 0 0 0
136 2 6.3527431937119943e+00 1.3342454481682740e+01 6.9373350232435040e+00 0 0 0
137 2 8.2936715293544712e+00 1.1386045329319160e+01 6.1103464904838027e+00 0 0 0
141 2 8.7079199440777391e+00 1.3444335249810198e+01 7.4016399670094088e+00 0 0 0
142 2 7.5294606972578118e+00 1.3395015325906243e+01 4.8075654405546935e+00 0 0 0
73 2 1.1873782074218667e+01 1.1542560955726227e+01 9.1360940229259100e+00 0 0 0
74 2 1.2301941589804832e+01 1.3588184051564268e+01 5.7004719716462757e+00 0 0 0
143 2 9.4826275047207744e+00 1.1439874764943971e+01 8.6972416643933226e+00 0 0 0
144 2 1.1098598179071589e+01 1.3540152567907002e+01 7.8475252595040779e+00 0 0 0
145 2 9.9017383637036076e+00 1.3492409662479988e+01 5.2587346923137641e+00 0 0 0
146 2 1.0675981139891595e+01 1.1491412110897599e+01 6.5492219111160299e+00 0 0 0
161 2 1.2254770918092677e+00 1.5195452062267821e+01 2.5958976890616907e+00 0 0 0
162 2 3.1614576657444613e+00 1.7192146132872590e+01 1.7754865784811023e+00 0 0 0
163 2 1.8709936801696221e+00 1.7175755784085617e+01 3.9021004188956994e+00 0 0 0
164 2 3.9811442595876723e+00 1.5241224050770191e+01 3.0680382516725651e+00 0 0 0
165 2 5.6603019683081512e-01 1.7171594197776113e+01 1.2975892362909791e+00 0 0 0
166 2 2.5821266303680179e+00 1.5204831865775050e+01 4.4623314569884320e-01 0 0 0
168 2 4.4409362848028602e+00 1.7247370980687506e+01 4.3839230111657006e+00 0 0 0
169 2 6.5478629524292495e+00 1.5358413491901109e+01 3.5404286909121314e+00 0 0 0
170 2 5.2820090192144225e+00 1.5292959728436037e+01 9.4051222591381534e-01 0 0 0
171 2 8.2043889427069399e+00 1.7436775837242820e+01 2.6979635208623667e+00 0 0 0
172 2 5.7055338299331373e+00 1.7312081192083532e+01 2.2473306515867542e+00 0 0 0
173 2 7.7891890727737705e+00 1.5418357985247946e+01 1.3968192479671322e+00 0 0 0
256 2 6.9585870269334205e+00 1.7376739365755579e+01 1.0674040661348004e-01 0 0 0
175 2 1.1474438618667937e+01 1.5571835371236821e+01 4.4238882047302992e+00 0 0 0
176 2 1.0250847998022090e+01 1.5522207250409798e+01 1.8378651145997216e+00 0 0 0
177 2 1.3129341621508500e+01 1.7652676395000586e+01 3.5743988668371420e+00 0 0 0
178 2 1.1904629590044138e+01 1.7600435481844652e+01 9.8902824637561682e-01 0 0 0
179 2 9.0238056387534069e+00 1.5471098854630577e+01 3.9857395369282447e+00 0 0 0
180 2 1.0676141552682786e+01 1.7547491114157488e+01 3.1382091799090750e+00 0 0 0
181 2 1.2694705975962746e+01 1.5621499872163275e+01 2.2744087931213297e+00 0 0 0
182 2 9.4428498256161664e+00 1.7493254394217288e+01 5.5131603160087184e-01 0 0 0
183 2 1.2116294285611462e+00 1.9181300612081348e+01 2.6002885697486744e+00 0 0 0
184 2 3.0626490140287239e+00 2.1236799694321892e+01 1.7613066437101015e+00 0 0 0
185 2 1.8264476528699527e+00 2.1212895000772448e+01 3.8987428892673734e+00 0 0 0
186 2 3.7186795747065351e+00 1.9230920392058433e+01 3.0708909078109876e+00 0 0 0
187 2 5.8944257062046612e-01 2.1206828761762921e+01 1.3000384094820756e+00 0 0 0
188 2 2.4673166091697638e+00 1.9196161864695338e+01 4.7078196464524374e-01 0 0 0
190 2 4.2981755866474316e+00 2.1275028049291873e+01 4.3576200077562435e+00 0 0 0
191 2 6.2142038098762660e+00 1.9344133898031188e+01 3.5334117115109893e+00 0 0 0
192 2 4.9678756713227825e+00 1.9284106029215732e+01 9.3611440293054882e-01 0 0 0
193 2 8.0014846620374556e+00 2.1439849866092747e+01 2.6717375137952519e+00 0 0 0
194 2 8.6955894857623264e+00 1.9464437620617339e+01 3.9841490945249358e+00 0 0 0
195 2 5.5335983163247109e+00 2.1325158301294636e+01 2.2187992954438638e+00 0 0 0
196 2 7.4569775940640284e+00 1.9405020082038874e+01 1.3927386210860153e+00 0 0 0
278 2 6.7682273018980172e+00 2.1381374469600566e+01 7.8730219656107422e-02 0 0 0
198 2 1.1160897766578039e+01 1.9578127397952652e+01 4.4256823884185836e+00 0 0 0
199 2 9.9301650570134434e+00 1.9521965992244912e+01 1.8382327291348473e+00 0 0 0
200 2 1.2912675198435036e+01 2.1670679767191110e+01 3.5555130297319466e+00 0 0 0
201 2 1.1688434368779104e+01 2.1613841349521159e+01 9.6912234508856410e-01 0 0 0
202 2 1.0461785306427517e+01 2.1556475241535320e+01 3.1166147044299493e+00 0 0 0
203 2 1.2388118915046157e+01 1.9633320377964726e+01 2.2770213274239417e+00 0 0 0
204 2 9.2327531525016635e+00 2.1498441039632091e+01 5.2761317062887081e-01 0 0 0
205 2 1.2067040410654359e+00 2.3237422304457304e+01 2.5983147888054892e+00 0 0 0
206 2 4.2647899754714498e+00 2.5320673140237687e+01 4.3340339368851737e+00 0 0 0
207 2 3.0417262788478943e+00 2.5289245018418665e+01 1.7450695335642576e+00 0 0 0
208 2 1.8185896447867349e+00 2.5269800947241105e+01 3.8913043731606756e+00 0 0 0
209 2 3.6622363255404378e+00 2.3279257265664249e+01 3.0489577542379855e+00 0 0 0
210 2 5.9533142702046704e-01 2.5263702058721339e+01 1.3026824141545721e+00 0 0 0
211 2 2.4344992300808022e+00 2.3251239079613210e+01 4.5613488015247350e-01 0 0 0
213 2 6.1175139292926621e+00 2.3367611707458970e+01 3.4991687978276804e+00 0 0 0
214 2 4.8898543606978873e+00 2.3318923687715792e+01 9.0655868900579395e-01 0 0 0
215 2 7.9333878728005711e+00 2.5464199292034483e+01 2.6311987626144653e+00 0 0 0
216 2 8.5715593413532432e+00 2.3478903674810230e+01 3.9469758511763939e+00 0 0 0
217 2 5.4877792449986007e+00 2.5361876252547699e+01 2.1881308370097479e+00 0 0 0
218 2 7.3448595967987931e+00 2.3421865674351004e+01 1.3561407256285414e+00 0 0 0
301 2 6.7106877705524175e+00 2.5410556370907848e+01 4.2296018059806088e-02 0 0 0
220 2 1.1021627301435782e+01 2.3595296058558940e+01 4.3894585390738019e+00 0 0 0
221 2 9.7972276583215088e+00 2.3536994200279917e+01 1.8013975690329735e+00 0 0 0
222 2 1.2818675751666200e+01 2.5695831530322476e+01 3.5093294743320551e+00 0 0 0
223 2 1.1598456430601994e+01 2.5637146258640119e+01 9.2354057989768190e-01 0 0 0
224 2 1.0377431930187663e+01 2.5578629663834857e+01 3.0719474068885715e+00 0 0 0
225 2 1.2244587568476792e+01 2.3653472502636376e+01 2.2413247916103716e+00 0 0 0
226 2 9.1556928849568049e+00 2.5520701011004700e+01 4.8448311417075418e-01 0 0 0
227 2 1.2081995574740145e+00 2.7288672601281970e+01 2.5954378793815365e+00 0 0 0
228 2 4.2554598563223260e+00 2.9361685790812402e+01 4.3132377470335914e+00 0 0 0
229 2 3.0375021800964639e+00 2.9331802309426742e+01 1.7313366728913120e+00 0 0 0
230 2 1.8191450031474590e+00 2.9312849772195293e+01 3.8845696874727689e+00 0 0 0
231 2 3.6489164008737567e+00 2.7325891936677650e+01 3.0308114674869007e+00 0 0 0
232 2 6.0048277332253386e-01 2.9306051122037996e+01 1.3028041724170558e+00 0 0 0
233 2 2.4286656826865562e+00 2.7301315983051577e+01 4.4555570658000254e-01 0 0 0
235 2 6.0887845258016879e+00 2.7404257127986526e+01 3.4670257492023859e+00 0 0 0
236 2 4.8689576271176325e+00 2.7360870097680433e+01 8.8130716634199735e-01 0 0 0
237 2 7.9072042115812078e+00 2.9498203730678135e+01 2.5907815786719848e+00 0 0 0
238 2 8.5278880924026925e+00 2.7507897305854211e+01 3.9038470521875723e+00 0 0 0
239 2 5.4730005105890029e+00 2.9400735912086034e+01 2.1603845816079921e+00 0 0 0
240 2 7.3084317288177330e+00 2.7453938839277885e+01 1.3179310421455581e+00 0 0 0
323 2 6.6902126020912656e+00 2.9446890237431422e+01 7.8913160126984176e-03 0 0 0
242 2 1.0966090605533759e+01 2.7622423474927576e+01 4.3399758258964702e+00 0 0 0
243 2 9.7471248579794665e+00 2.7564449792715269e+01 1.7545775098050300e+00 0 0 0
244 2 1.2774740801229710e+01 2.9726483823298981e+01 3.4546530054182694e+00 0 0 0
245 2 1.1557834070610877e+01 2.9667848203931996e+01 8.7103838265285938e-01 0 0 0
246 2 1.0340956812461256e+01 2.9609813122404766e+01 3.0224628106215921e+00 0 0 0
247 2 1.2184738457353170e+01 2.7681078194068100e+01 2.1899798994850115e+00 0 0 0
248 2 9.1240967059958997e+00 2.9552952844045180e+01 4.3901202492663788e-01 0 0 0
250 2 1.2258087833558799e+00 1.5195477584222276e+01 7.3305693729781254e+00 0 0 0
251 2 3.1614766740780609e+00 1.7192064881972257e+01 6.5103720945843406e+00 0 0 0
252 2 1.8709790025644961e+00 1.7175813562059432e+01 8.6370132413805987e+00 0 0 0
253 2 3.9815025223458878e+00 1.5241451109058959e+01 7.8029941436652379e+00 0 0 0
254 2 5.6601051138279346e-01 1.7171544228331911e+01 6.0324822898879633e+00 0 0 0
255 2 2.5820610402352435e+00 1.5204430270734592e+01 5.1811968275327489e+00 0 0 0
257 2 4.4409582370759635e+00 1.7247503826778420e+01 9.1189571987268820e+00 0 0 0
174 2 6.9585513662566241e+00 1.7376621864994814e+01 4.8416852878709085e+00 0 0 0
258 2 6.5479715092474944e+00 1.5358641407691158e+01 8.2755698742925556e+00 0 0 0
259 2 5.2819308556191187e+00 1.5292540151836617e+01 5.6751719471691935e+00 0 0 0
260 2 8.2043462651903081e+00 1.7436715483401539e+01 7.4329178155645215e+00 0 0 0
261 2 5.7054779777414328e+00 1.7311938011166795e+01 6.9822049446550327e+00 0 0 0
262 2 7.7890809645635599e+00 1.5418201855531516e+01 6.1317367131375082e+00 0 0 0
263 2 1.1474498225445425e+01 1.5571891696426249e+01 9.1589175714728519e+00 0 0 0
264 2 1.0250781892552736e+01 1.5522116084925896e+01 6.5728045256644689e+00 0 0 0
265 2 1.3129326054200078e+01 1.7652657858905034e+01 8.3093817995937584e+00 0 0 0
266 2 1.1904605709899320e+01 1.7600400903384806e+01 5.7240128768724707e+00 0 0 0
267 2 9.0238937992858546e+00 1.5471191457643807e+01 8.7207816692151123e+00 0 0 0
268 2 1.0676115598303271e+01 1.7547455141384681e+01 7.8731774530301868e+00 0 0 0
269 2 1.2694668219939867e+01 1.5621453966515205e+01 7.0093762411616805e+00 0 0 0
270 2 9.4428161643346407e+00 1.7493196336955911e+01 5.2862957518823057e+00 0 0 0
272 2 1.2116097057734472e+00 1.9181300904108223e+01 7.3352408657682444e+00 0 0 0
273 2 3.0626400695977676e+00 2.1236799150125098e+01 6.4962988371116879e+00 0 0 0
274 2 1.8264385525731788e+00 2.1212888127348855e+01 8.6337337920817880e+00 0 0 0
275 2 3.7186529323589119e+00 1.9230902291916351e+01 7.8058458982402898e+00 0 0 0
276 2 5.8943208654320900e-01 2.1206834481551027e+01 6.0350277300353214e+00 0 0 0
277 2 2.4673190076876845e+00 1.9196150299888416e+01 5.2057782920901134e+00 0 0 0
279 2 4.2981638456082214e+00 2.1275020784950001e+01 9.0926040664480894e+00 0 0 0
197 2 6.7682385325698773e+00 2.1381385931793307e+01 4.8137487041748610e+00 0 0 0
280 2 6.2141719472027539e+00 1.9344091627522850e+01 8.2683618456689079e+00 0 0 0
281 2 4.9678638664645387e+00 1.9284049211715679e+01 5.6710903878480412e+00 0 0 0
282 2 8.0014712272323774e+00 2.1439827082086577e+01 7.4067224991447498e+00 0 0 0
283 2 8.6955695935000623e+00 1.9464421155341959e+01 8.7191255991396126e+00 0 0 0
284 2 5.5335855486063794e+00 2.1325136399686574e+01 6.9537856962968556e+00 0 0 0
285 2 7.4569564646352955e+00 1.9404964230801525e+01 6.1277125642471937e+00 0 0 0
286 2 1.1160886040929212e+01 1.9578116544614112e+01 9.1606669990501981e+00 0 0 0
287 2 9.9301477091869117e+00 1.9521937004203792e+01 6.5732194971290792e+00 0 0 0
288 2 1.2912668308313908e+01 2.1670671900225809e+01 8.2905072947287142e+00 0 0 0
289 2 1.1688438041540643e+01 2.1613844072541088e+01 5.7041278141360134e+00 0 0 0
290 2 1.0461775165087571e+01 2.1556462679285360e+01 7.8516062904725361e+00 0 0 0
291 2 1.2388106698449990e+01 1.9633302893953886e+01 7.0120119301030348e+00 0 0 0
292 2 9.2327597176427112e+00 2.1498444433538776e+01 5.2626217229841510e+00 0 0 0
294 2 1.2066994830413134e+00 2.3237421700484258e+01 7.3333128146653443e+00 0 0 0
295 2 4.2647884158989369e+00 2.5320671182827795e+01 9.0690325866942505e+00 0 0 0
296 2 3.0417260615264294e+00 2.5289247372772554e+01 6.4800700350579499e+00 0 0 0
297 2 1.8185889740730947e+00 2.5269798620097642e+01 8.6263042321542773e+00 0 0 0
298 2 3.6622310494301034e+00 2.3279255501334166e+01 7.7839544903360798e+00 0 0 0
299 2 5.9533066170032367e-01 2.5263704011309951e+01 6.0376824013909731e+00 0 0 0
300 2 2.4344998454569304e+00 2.3251245302556093e+01 5.1911358272560273e+00 0 0 0
219 2 6.7106900634147628e+00 2.5410560383511630e+01 4.7772983426424087e+00 0 0 0
302 2 6.1175073451177573e+00 2.3367602997998596e+01 8.2341617887950243e+00 0 0 0
303 2 4.8898564349365694e+00 2.3318927493813117e+01 5.6415633232088398e+00 0 0 0
304 2 7.9333879713250601e+00 2.5464200245193542e+01 7.3662000433691315e+00 0 0 0
305 2 8.5715529790081018e+00 2.3478894456634851e+01 8.6819683073121023e+00 0 0 0
306 2 5.4877793528018053e+00 2.5361877786744603e+01 6.9231321407162012e+00 0 0 0
307 2 7.3448616791334720e+00 2.3421869213113702e+01 6.0911461912691287e+00 0 0 0
308 2 1.1021622523362765e+01 2.3595290683805541e+01 9.1244540729867012e+00 0 0 0
309 2 9.7972286606644783e+00 2.3536994751118122e+01 6.5363996673606728e+00 0 0 0
310 2 1.2818675468744887e+01 2.5695831457678050e+01 8.2443295222554784e+00 0 0 0
311 2 1.1598458244346615e+01 2.5637148656279148e+01 5.6585419554259238e+00 0 0 0
312 2 1.0377431751840108e+01 2.5578629472237274e+01 7.8069475531937549e+00 0 0 0
313 2 1.2244587927025352e+01 2.3653473065016875e+01 6.9763261852968315e+00 0 0 0
314 2 9.1556952285572404e+00 2.5520705005125471e+01 5.2194857019016920e+00 0 0 0
316 2 1.2081998392701014e+00 2.7288672503064063e+01 7.3304381764466804e+00 0 0 0
317 2 4.2554600492759009e+00 2.9361685751296395e+01 9.0482376851410748e+00 0 0 0
318 2 3.0375024594607116e+00 2.9331802681361456e+01 6.4663365091655685e+00 0 0 0
319 2 1.8191452446184537e+00 2.9312849545299034e+01 8.6195695683497267e+00 0 0 0
320 2 3.6489166085304823e+00 2.7325892400002481e+01 7.7658117138027816e+00 0 0 0
321 2 6.0048303091502198e-01 2.9306051293511320e+01 6.0378040813462297e+00 0 0 0
322 2 2.4286658357121622e+00 2.7301317165848033e+01 5.1805554174033981e+00 0 0 0
241 2 6.6902124732647197e+00 2.9446890355748408e+01 4.7428906026384823e+00 0 0 0
315 2 7.3084325198768569e+00 2.7453940664077944e+01 6.0529317656123798e+00 0 0 0
324 2 6.0887846539010226e+00 2.7404257408211759e+01 8.2020260860791669e+00 0 0 0
325 2 4.8689581292437536e+00 2.7360871260808008e+01 5.6163072299086521e+00 0 0 0
326 2 7.9072046003909771e+00 2.9498204451015710e+01 7.3257817019529305e+00 0 0 0
327 2 8.5278880947447142e+00 2.7507897301124153e+01 8.6388471993298523e+00 0 0 0
328 2 5.4730008467755900e+00 2.9400736374860649e+01 6.8953845020678566e+00 0 0 0
167 2 9.1240966515663988e+00 2.9552953096788432e+01 5.1740114234966548e+00 0 0 0
189 2 1.2184739097560692e+01 2.7681079239916532e+01 6.9249802254927655e+00 0 0 0
212 2 1.0340957189292700e+01 2.9609813756593859e+01 7.7574629366084729e+00 0 0 0
234 2 1.1557834078913711e+01 2.9667848569161293e+01 5.6060379318078635e+00 0 0 0
249 2 1.2774741100843647e+01 2.9726484167834368e+01 8.1896529517471457e+00 0 0 0
271 2 9.7471256878409775e+00 2.7564451504528616e+01 6.4895783162715492e+00 0 0 0
293 2 1.0966090463846403e+01 2.7622423096208127e+01 9.0749755377120493e+00 0 0 0
329 2 1.2114404234384264e+00 3.1322579630840220e+01 2.5917518838511286e+00 0 0 0
330 2 4.2466423189341986e+00 3.3394652860283493e+01 4.2905519200191904e+00 0 0 0
331 2 3.0336737200384811e+00 3.3361031660562389e+01 1.7160444945989213e+00 0 0 0
332 2 1.8197264325223261e+00 3.3338924548721650e+01 3.8766527914429467e+00 0 0 0
333 2 3.6442314135339018e+00 3.1362239051040184e+01 3.0133396448247973e+00 0 0 0
334 2 6.0517888295522260e-01 3.3330350681262217e+01 1.3023063372543222e+00 0 0 0
335 2 2.4281065028457500e+00 3.1336483724317347e+01 4.3502953830574176e-01 0 0 0
336 2 6.0745826450432769e+00 3.1441596994925451e+01 3.4357659283032702e+00 0 0 0
337 2 4.8596765159877604e+00 3.1398037297537652e+01 8.5681844828100651e-01 0 0 0
338 2 7.8819065383894751e+00 3.3537150672266193e+01 2.5492507320916231e+00 0 0 0
340 2 8.5035682349026622e+00 3.1543958303850630e+01 3.8607001579638895e+00 0 0 0
341 2 5.4588293226582971e+00 3.3436800565920144e+01 2.1307446581880543e+00 0 0 0
342 2 7.2891228232125149e+00 3.1490846942990562e+01 1.2803507661273323e+00 0 0 0
416 2 6.6704291244059428e+00 3.3485018489226618e+01 4.7068746269970312e+00 0 0 0
343 2 1.0932887711167803e+01 3.1656660250271802e+01 4.2885010013005820e+00 0 0 0
344 2 9.7180974090224819e+00 3.1599573630888624e+01 1.7067715010868918e+00 0 0 0
345 2 1.2731886157533944e+01 3.3762320301041669e+01 3.4001440256578914e+00 0 0 0
346 2 1.1518362637937143e+01 3.3704895401896380e+01 8.1846583349791846e-01 0 0 0
347 2 1.0305622877950039e+01 3.3647936946767651e+01 2.9726358911807949e+00 0 0 0
348 2 1.2148022978541819e+01 3.1714575698066998e+01 2.1357600976233551e+00 0 0 0
349 2 9.0935216859699803e+00 3.3591826128765604e+01 3.9283650904155049e-01 0 0 0
488 2 1.3363567848762075e+01 3.1772923480957783e+01 4.7184327474777650e+00 0 0 0
351 2 1.2124318817773272e+00 3.5339031152257057e+01 2.5865141754382384e+00 0 0 0
352 2 4.2198678360024608e+00 3.7425258921178049e+01 4.2559572881140850e+00 0 0 0
353 2 3.0170009756612184e+00 3.7381946468535297e+01 1.6902565495795727e+00 0 0 0
354 2 1.8132447605650048e+00 3.7350433780885695e+01 3.8630142936670979e+00 0 0 0
355 2 3.6326410638092317e+00 3.5389507898215221e+01 2.9905726112994562e+00 0 0 0
356 2 6.0793022757789028e-01 3.7338690322412695e+01 1.3016778748337883e+00 0 0 0
357 2 2.4232327571471370e+00 3.5357132765455098e+01 4.2093100528738603e-01 0 0 0
482 2 1.3594517858534650e-03 3.5337436986768537e+01 1.7526912975389636e-02 0 0 0
358 2 6.0486259318153035e+00 3.5480132749292956e+01 3.3990419255733100e+00 0 0 0
359 2 4.8410873987416370e+00 3.5431544739148762e+01 8.2652825509596228e-01 0 0 0
360 2 7.8247796150467606e+00 3.7584858157183589e+01 2.5015285247313650e+00 0 0 0
362 2 8.4636590323492911e+00 3.5586762850338488e+01 3.8149070027114949e+00 0 0 0
363 2 5.4213752850174028e+00 3.7475886582494077e+01 2.0895321820501707e+00 0 0 0
364 2 7.2560721611713719e+00 3.5532322966433028e+01 1.2385849818918129e+00 0 0 0
438 2 6.6230451872655385e+00 3.7529515023651506e+01 4.6617933387917923e+00 0 0 0
365 2 9.0278643041671085e+00 3.7639920440747666e+01 3.4410270029762141e-01 0 0 0
366 2 1.0881372429018530e+01 3.5698077413521020e+01 4.2378699515140754e+00 0 0 0