LAMMPS data file via write_data, version 11 Aug 2017, timestep = 1000

2353 atoms
2 atom types

0.0000000000000000e+00 3.9974370800000003e+01 xlo xhi
0.0000000000000000e+00 5.6532297332691002e+01 ylo yhi
0.0000000000000000e+00 1.2114063714147999e+01 zlo zhi

Masses

1 12.0107
2 55.845

Atoms # atomic

1 2 7.2470302165345390e-01 1.9376234301274859e+00 1.2700217774289377e+00 0 0 0
2 2 2.1875705671187693e+00 1.7141457754893232e+00 3.1035574180240522e+00 0 0 0
3 2 3.5714505521732085e+00 1.7446333004676629e+00 1.0397575715214287e+00 0 0 0
9 2 7.1731727283508617e-01 3.7246604915118984e+00 3.0724163465447614e+00 0 0 0
10 2 2.1804400399938983e+00 3.7848439694753959e+00 1.0484610136629928e+00 0 0 0
13 2 3.5782794426920708e+00 3.7608296751114554e+00 3.0768990026780689e+00 0 0 0
2353 1 7.1794772236583282e-01 6.8013485532083073e-01 3.8180966978529845e-04 0 0 0
4 2 5.0048599774130027e+00 1.7616612974998280e+00 3.0490828930729030e+00 0 0 0
5 2 6.4214484346936196e+00 1.7981540897060493e+00 1.0257047433452586e+00 0 0 0
6 2 7.8468087319940700e+00 1.8398578516715844e+00 3.0438505549456112e+00 0 0 0
7 2 9.2692811182361758e+00 1.8833508268936847e+00 1.0245343174498596e+00 0 0 0
8 2 7.1116318298844905e-01 5.7361231830072548e+00 1.0488845250798364e+00 0 0 0
11 2 2.1380779891723414e+00 5.7450954617686829e+00 3.0786525897265471e+00 0 0 0
12 2 3.5659132936084306e+00 5.7924031492966677e+00 1.0694336408472540e+00 0 0 0
14 2 4.9881761451257489e+00 3.7892657444708648e+00 1.0501633771004102e+00 0 0 0
15 2 4.9692417860323221e+00 5.8142788712960742e+00 3.0987503610339102e+00 0 0 0
16 2 6.3789748475181716e+00 5.8536891242895193e+00 1.0807554547576124e+00 0 0 0
17 2 6.4069216290516122e+00 3.8249379802772951e+00 3.0722182499443424e+00 0 0 0
18 2 7.8245379044300609e+00 3.8663230776287882e+00 1.0522602803202170e+00 0 0 0
19 2 7.7951927948715038e+00 5.8951732263122389e+00 3.1032909871460403e+00 0 0 0
20 2 9.2165878871336027e+00 5.9359842895336659e+00 1.0834114164013027e+00 0 0 0
21 2 9.2471152185897356e+00 3.9102785683141104e+00 3.0704346740305235e+00 0 0 0
22 2 6.8390012768598973e-01 9.7327186993936579e+00 1.0813119354138410e+00 0 0 0
23 2 7.0367135651855417e-01 7.7245524002120476e+00 3.0789864358201839e+00 0 0 0
24 2 2.1172773428355707e+00 7.7606120849833102e+00 1.0810940205157340e+00 0 0 0
25 2 2.0769436452128081e+00 9.7792568241675326e+00 3.1354909441388004e+00 0 0 0
26 2 3.4687676942410852e+00 9.8317198138812358e+00 1.1453117522103002e+00 0 0 0
27 2 3.5233248000897595e+00 7.7983522805290848e+00 3.1184868583404066e+00 0 0 0
28 2 4.9313300652533378e+00 7.8472713239727048e+00 1.1124212715844866e+00 0 0 0
29 2 4.8643289663201159e+00 9.8787243513617629e+00 3.1870455536284297e+00 0 0 0
30 2 6.2733265385745378e+00 9.9181824278392163e+00 1.1827583172014766e+00 0 0 0
31 2 6.3358670899235889e+00 7.8849195079163152e+00 3.1423320195581530e+00 0 0 0
32 2 7.7506321979309218e+00 7.9233198050993368e+00 1.1267955606275164e+00 0 0 0
33 2 7.6902668518917041e+00 9.9496642682858436e+00 3.2109866841302321e+00 0 0 0
34 2 9.1175603252782604e+00 9.9798916547029943e+00 1.1932657227281334e+00 0 0 0
35 2 9.1743937035282705e+00 7.9603630467893600e+00 3.1469908381909995e+00 0 0 0
36 2 7.1947591122696319e-01 1.6932642428323013e+00 5.0774704412108376e+00 0 0 0
37 2 2.1547990245270006e+00 1.7010422378552483e+00 7.0832483840817861e+00 0 0 0
38 2 3.5955967502371631e+00 1.7298549118632602e+00 5.0837816529696012e+00 0 0 0
44 2 7.1595191039221517e-01 3.6989739369741907e+00 7.0959161162874658e+00 0 0 0
45 2 2.1475865712617939e+00 3.7221574081309710e+00 5.0877265076626319e+00 0 0 0
48 2 3.5658136546418087e+00 3.7458073609794647e+00 7.1111841496593424e+00 0 0 0
39 2 5.0080172423970959e+00 1.7598928055683891e+00 7.0942537140470963e+00 0 0 0
40 2 6.4278911447254705e+00 1.7975170988012086e+00 5.0668513289806825e+00 0 0 0
41 2 7.8480327268681851e+00 1.8382829803172271e+00 7.0851057036654108e+00 0 0 0
42 2 9.2694531104115221e+00 1.8830363127996581e+00 5.0627118153510189e+00 0 0 0
43 2 7.1169961383628333e-01 5.7139443130918810e+00 5.0849157411178210e+00 0 0 0
46 2 2.1312112681859428e+00 5.7314679867832643e+00 7.1171546553180631e+00 0 0 0
47 2 3.5511244153369170e+00 5.7690726270317771e+00 5.1094432275629549e+00 0 0 0
49 2 4.9921795085996949e+00 3.7856549971092992e+00 5.0951787176111711e+00 0 0 0
50 2 4.9630910598410543e+00 5.8056692233005922e+00 7.1353554767491163e+00 0 0 0
51 2 6.3796145536073130e+00 5.8520004422807812e+00 5.1219766474492419e+00 0 0 0
52 2 6.4081220382705721e+00 3.8227302030800705e+00 7.1127585358464911e+00 0 0 0
53 2 7.8264860691624492e+00 3.8665766853010779e+00 5.0915372352035577e+00 0 0 0
54 2 7.7955435854354809e+00 5.8934906903144029e+00 7.1421088816309251e+00 0 0 0
55 2 9.2173802344081697e+00 5.9360935609309760e+00 5.1220218908402453e+00 0 0 0
56 2 9.2477422287948023e+00 3.9092453940773639e+00 7.1094277915965138e+00 0 0 0
57 2 6.8402736020395971e-01 9.7277809577352787e+00 5.1195845501758512e+00 0 0 0
58 2 7.0380411827949230e-01 7.7172368890459708e+00 7.1172301507345805e+00 0 0 0
59 2 2.1150581258807550e+00 7.7506652835825438e+00 5.1190841559585447e+00 0 0 0
60 2 2.0762992915969458e+00 9.7744559433707110e+00 7.1735879601268193e+00 0 0 0
61 2 3.4672082353631231e+00 9.8271188100908926e+00 5.1836976551719340e+00 0 0 0
62 2 3.5189710402112166e+00 7.7898226149854528e+00 7.1561660268665657e+00 0 0 0
63 2 4.9254540765311408e+00 7.8381080614605008e+00 5.1519028796716055e+00 0 0 0
64 2 4.8621342710900546e+00 9.8737636586949229e+00 7.2248863763371372e+00 0 0 0
65 2 6.2710845148193677e+00 9.9143384911123427e+00 5.2216732835733195e+00 0 0 0
66 2 6.3331507040591255e+00 7.8801691389364841e+00 7.1798484327861640e+00 0 0 0
67 2 7.7506816816672117e+00 7.9223559644063704e+00 5.1662163694032230e+00 0 0 0
68 2 7.6890843823427186e+00 9.9470921276332831e+00 7.2488952104644051e+00 0 0 0
69 2 9.1174420210227680e+00 9.9793559859082546e+00 5.2318854517509585e+00 0 0 0
70 2 9.1744458196029584e+00 7.9592352991927617e+00 7.1853067958829886e+00 0 0 0
71 2 7.1908189091204489e-01 1.6692178825414137e+00 9.0859389239276798e+00 0 0 0
72 2 2.1176663412045795e+00 1.6827444798044824e+00 1.1140902633479602e+01 0 0 0
73 2 3.5703165593033108e+00 1.7256085678803870e+00 9.1134719302147928e+00 0 0 0
79 2 7.1633736629664602e-01 3.7170172788125031e+00 1.1147821890284996e+01 0 0 0
80 2 2.1338123963257418e+00 3.7102528990451864e+00 9.1259056866293022e+00 0 0 0
83 2 3.5590425292227055e+00 3.7371737644687064e+00 1.1140243610122489e+01 0 0 0
74 2 4.9895048283401691e+00 1.7515041214548308e+00 1.1126966318905204e+01 0 0 0
75 2 6.4245061627712499e+00 1.7946549769055240e+00 9.1086397063874465e+00 0 0 0
76 2 7.8460794795643087e+00 1.8368564690465556e+00 1.1122283290729710e+01 0 0 0
77 2 9.2696586073477487e+00 1.8816789661678812e+00 9.1018313388563676e+00 0 0 0
78 2 7.1147562573691225e-01 5.7097780140860959e+00 9.1254671200688353e+00 0 0 0
81 2 2.1366920222999872e+00 5.7396447468504146e+00 1.1155620131652544e+01 0 0 0
82 2 3.5463225244841254e+00 5.7612976581414452e+00 9.1450258469657228e+00 0 0 0
84 2 4.9852107172683695e+00 3.7785456188317612e+00 9.1290352123531413e+00 0 0 0
85 2 4.9627650826677217e+00 5.8036938909181917e+00 1.1168822437815136e+01 0 0 0
86 2 6.3770058305412549e+00 5.8476824106442864e+00 9.1576131500995785e+00 0 0 0
87 2 6.4029162464213840e+00 3.8178848476629037e+00 1.1147516151363835e+01 0 0 0
88 2 7.8257144691890748e+00 3.8641607104846432e+00 9.1303675231726373e+00 0 0 0
89 2 7.7936537996269255e+00 5.8915801897361746e+00 1.1178597680559911e+01 0 0 0
90 2 9.2170383540669576e+00 5.9346402109804037e+00 9.1602142130937541e+00 0 0 0
91 2 9.2469857127058077e+00 3.9084391974550976e+00 1.1147172679453346e+01 0 0 0
92 2 6.8394576271954244e-01 9.7257055925098150e+00 9.1576960120366451e+00 0 0 0
93 2 7.0352348740665327e-01 7.7213559616646386e+00 1.1155207872516050e+01 0 0 0
94 2 2.1147826353379284e+00 7.7476589092698385e+00 9.1575716175585828e+00 0 0 0
95 2 2.0769520880720296e+00 9.7769073182788855e+00 1.1211264843300656e+01 0 0 0
96 2 3.4670677223160276e+00 9.8250212009353355e+00 9.2214315252830037e+00 0 0 0
97 2 3.5226985399315960e+00 7.7943124451643424e+00 1.1193478756820319e+01 0 0 0
98 2 4.9234893936733242e+00 7.8338458538265296e+00 9.1881149384329515e+00 0 0 0
99 2 4.8639207099534270e+00 9.8762971980919296e+00 1.1262221692152508e+01 0 0 0
100 2 6.2702908229589731e+00 9.9120962414640292e+00 9.2587460543873892e+00 0 0 0
101 2 6.3335633821692818e+00 7.8802219869084276e+00 1.1215760324721938e+01 0 0 0
102 2 7.7496254693436413e+00 7.9200462209869755e+00 9.2031176387365452e+00 0 0 0
103 2 7.6894608779472593e+00 9.9475068836601679e+00 1.1285972234456471e+01 0 0 0
104 2 9.1170223489907407e+00 9.9781564630225841e+00 9.2694247932078824e+00 0 0 0
105 2 9.1737611321251613e+00 7.9585759355321857e+00 1.1222641821975831e+01 0 0 0
106 2 4.9316004222123921e-01 1.3780897383288130e+01 1.1927818312177854e+00 0 0 0
107 2 6.2653970208351628e-01 1.1755323448000913e+01 3.1370677920207415e+00 0 0 0
108 2 1.9997045248191636e+00 1.1817734260654644e+01 1.1770205699738034e+00 0 0 0
109 2 1.8462442292149528e+00 1.3875587184203820e+01 3.3189985752596680e+00 0 0 0
110 2 3.2483827368811165e+00 1.3916568183132945e+01 1.3646297565128878e+00 0 0 0
111 2 3.3770700068352029e+00 1.1878367917118537e+01 3.2416303453277457e+00 0 0 0
112 2 4.7773634304304640e+00 1.1916710923923093e+01 1.2554199018292609e+00 0 0 0
113 2 4.6681166440960364e+00 1.3944970483286300e+01 3.4198328330584817e+00 0 0 0
114 2 6.0975045728534845e+00 1.3964660876918057e+01 1.4199231720051479e+00 0 0 0
115 2 6.1910964880407047e+00 1.1946093876476237e+01 3.2962624759319832e+00 0 0 0
116 2 7.6158422649779789e+00 1.1970853068455389e+01 1.2889349058316075e+00 0 0 0
117 2 7.5306487302383953e+00 1.3982968039784646e+01 3.4489593135679981e+00 0 0 0
118 2 8.9671399643511887e+00 1.4000811751667289e+01 1.4331614478248436e+00 0 0 0
119 2 9.0473929631071428e+00 1.1993549738711170e+01 3.3117604423772637e+00 0 0 0
120 2 5.0068684407075660e-02 1.7851756754515911e+01 1.9529960700064948e+00 0 0 0
121 2 1.5847917925876838e+00 1.5874454120191707e+01 1.7714380717128122e+00 0 0 0
122 2 2.9917433820066557e+00 1.7894502461245839e+01 1.8267277014250369e+00 0 0 0
123 2 4.5419378072905889e+00 1.5941761313078050e+01 1.6389786255654510e+00 0 0 0
124 2 3.9288286826457415e-02 1.5864440834556977e+01 3.9588752895784580e+00 0 0 0
125 2 1.5191453446209482e+00 1.7858834794367322e+01 3.9018463957438949e+00 0 0 0
126 2 3.0740785484955833e+00 1.5914363260939147e+01 3.7028389351230246e+00 0 0 0
127 2 4.4562222965517035e+00 1.7929129276106167e+01 3.8074846754562519e+00 0 0 0
128 2 5.9121376988583627e+00 1.7959212370314209e+01 1.7636741126905460e+00 0 0 0
129 2 7.4407121806847591e+00 1.5985486061108430e+01 1.6064736486123266e+00 0 0 0
130 2 8.8007630023244943e+00 1.8010050155059801e+01 1.7445983539918639e+00 0 0 0
131 2 5.9953076776310006e+00 1.5965439522852201e+01 3.6359584083351248e+00 0 0 0
132 2 7.3601614482513709e+00 1.7985820672690547e+01 3.7686802369177363e+00 0 0 0
133 2 8.8810204050540662e+00 1.6004080007392385e+01 3.6227617682423827e+00 0 0 0
134 2 1.7425271868859095e-02 2.1876546128859147e+01 1.9928891521241170e+00 0 0 0
135 2 1.4870879500964305e+00 1.9873117386248847e+01 1.9381680186970369e+00 0 0 0
136 2 2.9106968488916309e+00 2.1908685149515421e+01 1.9500265652775977e+00 0 0 0
137 2 4.3963520210305402e+00 1.9926599136725208e+01 1.8789289003350587e+00 0 0 0
138 2 3.2285684353294888e-02 1.9861894431482984e+01 3.9957892822306369e+00 0 0 0
139 2 1.4650020764020943e+00 2.1889357122638557e+01 3.9891022248553982e+00 0 0 0
140 2 2.9410464878001465e+00 1.9894737411446798e+01 3.9241285523185456e+00 0 0 0
141 2 4.3558571890486650e+00 2.1935054698239966e+01 3.9526175441393256e+00 0 0 0
142 2 5.7998157633428056e+00 2.1967222155393213e+01 1.9212632321350676e+00 0 0 0
143 2 7.2926246355110305e+00 1.9990485172117587e+01 1.8487338034487353e+00 0 0 0
144 2 8.6734367271636188e+00 2.2037988503851263e+01 1.9099407502168673e+00 0 0 0
145 2 5.8474509490099429e+00 1.9958952752755206e+01 3.8793118726419973e+00 0 0 0
146 2 7.2395754859306125e+00 2.2001747896841483e+01 3.9323764282017910e+00 0 0 0
147 2 8.7305312311673493e+00 2.0021493985726632e+01 3.8631347932284097e+00 0 0 0
148 2 4.9297878465058548e-01 1.3779413565669978e+01 5.2307773767533217e+00 0 0 0
149 2 6.2657624191664385e-01 1.1752002672641197e+01 7.1751232091516819e+00 0 0 0
150 2 1.9994347890417257e+00 1.1815253805689414e+01 5.2153076677170462e+00 0 0 0
151 2 1.8462358161843040e+00 1.3873309259547561e+01 7.3565401412684546e+00 0 0 0
152 2 3.2484424063995809e+00 1.3915153413472279e+01 5.4028951763240531e+00 0 0 0
153 2 3.3766460522787636e+00 1.1875288396672111e+01 7.2796503920236404e+00 0 0 0
154 2 4.7766513154327122e+00 1.1914420214152299e+01 5.2937747550869183e+00 0 0 0
155 2 4.6678312085929461e+00 1.3943132567892956e+01 7.4578933902089819e+00 0 0 0
156 2 6.0971195472254811e+00 1.3963568759505428e+01 5.4581765820012462e+00 0 0 0
157 2 6.1900575699356573e+00 1.1943327068208921e+01 7.3342704191038006e+00 0 0 0
158 2 7.6148903402711046e+00 1.1969202461493319e+01 5.3274049588031742e+00 0 0 0
159 2 7.5300942613462443e+00 1.3981496782344939e+01 7.4869967244208437e+00 0 0 0
160 2 8.9666989507721837e+00 1.4000077963922326e+01 5.4714203869224818e+00 0 0 0
161 2 9.0468139178633464e+00 1.1992192837677752e+01 7.3497672237382421e+00 0 0 0
162 2 5.0095540390736236e-02 1.7851002741754996e+01 5.9910484648793734e+00 0 0 0
163 2 1.5850039611099229e+00 1.5873271948412510e+01 5.8091484645096898e+00 0 0 0
164 2 2.9916520708076755e+00 1.7894018391098349e+01 5.8648620514843790e+00 0 0 0
165 2 4.5417882790969966e+00 1.5941084391995494e+01 5.6772102848758852e+00 0 0 0
166 2 3.9252772509675397e-02 1.5863227163337456e+01 7.9966905702432030e+00 0 0 0
167 2 1.5190416147617571e+00 1.7858056720344067e+01 7.9398432597490549e+00 0 0 0
168 2 3.0736829250223279e+00 1.5913089069903938e+01 7.7409407335244236e+00 0 0 0
169 2 4.4560349357602407e+00 1.7928369303120931e+01 7.8455373614634354e+00 0 0 0
170 2 5.9120286247756244e+00 1.7958868247696049e+01 5.8018206235984460e+00 0 0 0
171 2 7.4404737312238689e+00 1.5984955832993153e+01 5.6446745880808882e+00 0 0 0
172 2 8.8006372773954169e+00 1.8009783728554755e+01 5.7827105260962099e+00 0 0 0
173 2 5.9950029438096921e+00 1.5964404050372266e+01 7.6740342887594348e+00 0 0 0
174 2 7.3599877376940759e+00 1.7985227339036367e+01 7.8067227739908391e+00 0 0 0
175 2 8.8807176467734568e+00 1.6003298686441404e+01 7.6607909860196770e+00 0 0 0
176 2 1.7395418599355315e-02 2.1876303863313964e+01 6.0309337394417275e+00 0 0 0
177 2 1.4870264710259862e+00 1.9872760913447863e+01 5.9762405261694447e+00 0 0 0
178 2 2.9106547831285168e+00 2.1908498903871610e+01 5.9880755671823476e+00 0 0 0
179 2 4.3962905203237250e+00 1.9926353447847923e+01 5.9170070696442654e+00 0 0 0
180 2 3.2270150859966588e-02 1.9861441101624838e+01 8.0337848390157642e+00 0 0 0
181 2 1.4649927704360945e+00 2.1889073257064318e+01 8.0271098967898862e+00 0 0 0
182 2 2.9409871873403159e+00 1.9894264005624208e+01 7.9621400597236054e+00 0 0 0
183 2 4.3558221275148483e+00 2.1934771110290967e+01 7.9906307061336168e+00 0 0 0
184 2 5.7997820728405438e+00 2.1967091121435217e+01 5.9593134277056592e+00 0 0 0
185 2 7.2925642765554288e+00 1.9990303438442869e+01 5.8868159313323067e+00 0 0 0
186 2 8.6734044808736162e+00 2.2037891075970023e+01 5.9479933609282476e+00 0 0 0
187 2 5.8473496093848318e+00 1.9958516371828523e+01 7.9173415938142684e+00 0 0 0
188 2 7.2395189968596876e+00 2.2001498774969743e+01 7.9704001607401933e+00 0 0 0
189 2 8.7304321585353755e+00 2.0021160847814652e+01 7.9011654757296705e+00 0 0 0
190 2 4.9328829069928432e-01 1.3778127106373647e+01 9.2682870474544412e+00 0 0 0
191 2 6.2648392575392231e-01 1.1753513966971695e+01 1.1212916640567649e+01 0 0 0
192 2 1.9994484570273801e+00 1.1813712195632283e+01 9.2531549017455603e+00 0 0 0
193 2 1.8461878094798945e+00 1.3874097865657276e+01 1.1394398403358283e+01 0 0 0
194 2 3.2482820544407960e+00 1.3914154042347397e+01 9.4406019571873845e+00 0 0 0
195 2 3.3770776055087857e+00 1.1876800848074337e+01 1.1317340618060681e+01 0 0 0
196 2 4.7765397244676597e+00 1.1913093739238890e+01 9.3315140743632998e+00 0 0 0
197 2 4.6680116205842834e+00 1.3944016442489017e+01 1.1495664224803855e+01 0 0 0
198 2 6.0970041174727685e+00 1.3962773609016983e+01 9.4960228230538846e+00 0 0 0
199 2 6.1908805487804530e+00 1.1944677778147749e+01 1.1371882331715167e+01 0 0 0
200 2 7.6145693630038540e+00 1.1968026377094626e+01 9.3650054669007936e+00 0 0 0
201 2 7.5305107069185047e+00 1.3982186224894416e+01 1.1524769360260317e+01 0 0 0
202 2 8.9665511231646349e+00 1.3999468855705841e+01 9.5092279295677802e+00 0 0 0
203 2 9.0470958623538547e+00 1.1992531226634823e+01 1.1387369698484651e+01 0 0 0
204 2 3.8950073303806697e-02 1.5864596058567987e+01 1.2034897780478017e+01 0 0 0
205 2 1.5191275883123083e+00 1.7858619564151006e+01 1.1977792801863730e+01 0 0 0
206 2 3.0737258925880115e+00 1.5913664544260758e+01 1.1778858329753739e+01 0 0 0
207 2 4.4561107037188794e+00 1.7928683509950179e+01 1.1883428616375497e+01 0 0 0
208 2 5.0016150712616191e-02 1.7851050029184162e+01 1.0028979382556903e+01 0 0 0
209 2 1.5843196411817133e+00 1.5872937154900480e+01 9.8475575541932869e+00 0 0 0
210 2 2.9915345090768146e+00 1.7893624039227191e+01 9.9027949078452639e+00 0 0 0
211 2 4.5415545347270196e+00 1.5940492012805901e+01 9.7151158991508080e+00 0 0 0
212 2 5.9951935888228292e+00 1.5964875158441190e+01 1.1711830702433485e+01 0 0 0
213 2 7.3600989049934160e+00 1.7985482702686095e+01 1.1844634283000904e+01 0 0 0
214 2 8.8809366208813181e+00 1.6003655192168843e+01 1.1698657884532714e+01 0 0 0
215 2 5.9119426344449000e+00 1.7958486277403743e+01 9.8397552859034416e+00 0 0 0
216 2 7.4403896834294247e+00 1.5984487364131457e+01 9.6825481261676689e+00 0 0 0
217 2 8.8005839532682462e+00 1.8009512037802988e+01 9.8206550207258019e+00 0 0 0
218 2 3.2328887767145889e-02 1.9861866074717724e+01 1.2071758751818729e+01 0 0 0
219 2 1.4650399152034486e+00 2.1889289753046480e+01 1.2065102401173519e+01 0 0 0
220 2 2.9410585111597034e+00 1.9894543171625227e+01 1.2000107503878954e+01 0 0 0
221 2 4.3558619644307965e+00 2.1934919800210373e+01 1.2028624647806412e+01 0 0 0
222 2 1.7427683631934004e-02 2.1876268110358129e+01 1.0068914713312040e+01 0 0 0
223 2 1.4870648212379356e+00 1.9872649401282370e+01 1.0014191050153004e+01 0 0 0
224 2 2.9106802104870408e+00 2.1908395157313166e+01 1.0026057182777123e+01 0 0 0
225 2 4.3962537843248128e+00 1.9926100880413934e+01 9.9549734324070265e+00 0 0 0
226 2 5.8474003173680291e+00 1.9958693057754218e+01 1.1955300296185975e+01 0 0 0
227 2 7.2395479822354254e+00 2.2001598836632390e+01 1.2008389814508325e+01 0 0 0
228 2 8.7304917115541354e+00 2.0021300208834223e+01 1.1939131890193245e+01 0 0 0
229 2 5.7997633964922128e+00 2.1966939252289411e+01 9.9973037888382752e+00 0 0 0
230 2 7.2925175538496898e+00 1.9990079872395683e+01 9.9247899858387996e+00 0 0 0
231 2 8.6733777560106766e+00 2.2037762567969725e+01 9.9859886997187832e+00 0 0 0
232 2 3.8630746268251909e-03 2.5916773668088048e+01 2.0101553726547494e+00 0 0 0
233 2 1.4495888832929742e+00 2.3907298514888243e+01 1.9899016875147049e+00 0 0 0
234 2 2.8749569308588971e+00 2.5944300874143821e+01 1.9972294970962630e+00 0 0 0
235 2 4.3286042819436084e+00 2.3951056642265517e+01 1.9683212128877925e+00 0 0 0
236 2 9.1283273034479407e-03 2.3896414304578752e+01 4.0221195294025973e+00 0 0 0
237 2 1.4395298638605194e+00 2.5926487253238051e+01 4.0223494801322763e+00 0 0 0
238 2 2.8897343904716735e+00 2.3925952114657662e+01 3.9971450101012791e+00 0 0 0
239 2 4.3093849088933887e+00 2.5969445423474724e+01 4.0111586229609992e+00 0 0 0
240 2 5.7420323873690453e+00 2.6001033546785568e+01 1.9882898212415305e+00 0 0 0
241 2 7.2002961918270261e+00 2.4018450554236523e+01 1.9560256467391453e+00 0 0 0
242 2 8.5996076204083760e+00 2.6079948691100505e+01 1.9848242660738937e+00 0 0 0
243 2 5.7658321403577535e+00 2.3982248652923829e+01 3.9798959402731251e+00 0 0 0
244 2 7.1722963976444811e+00 2.6038309373442274e+01 4.0048377944656712e+00 0 0 0
245 2 8.6302946034462593e+00 2.4058182206836591e+01 3.9729502498350042e+00 0 0 0
246 2 1.4274629519345583e+00 2.9959768750788541e+01 3.4481372985221614e-03 0 0 0
247 2 1.4326220414093263e+00 2.7944524338005870e+01 2.0135145486339701e+00 0 0 0
248 2 2.8565107582936964e+00 2.9978244019079952e+01 2.0246088278606336e+00 0 0 0
249 2 4.2842206793731554e+00 3.0005133799827604e+01 7.5650467210005706e-03 0 0 0
250 2 4.2954309165899751e+00 2.7987876098994239e+01 2.0103194707240393e+00 0 0 0
252 2 2.8645386994226749e+00 2.7962244498419569e+01 4.0307462255101267e+00 0 0 0
253 2 5.7102504396643994e+00 3.0039667411387082e+01 2.0282634741845298e+00 0 0 0
254 2 7.1347542462248299e+00 3.0080033537538249e+01 1.0571720256156488e-02 0 0 0
255 2 7.1520286635589798e+00 2.8059176878474116e+01 2.0088036755818974e+00 0 0 0
256 2 8.5584781288122116e+00 3.0124056955487411e+01 2.0304750865047243e+00 0 0 0
257 2 5.7247030625256032e+00 2.8020593916939909e+01 4.0283436073798686e+00 0 0 0
258 2 8.5774522791020864e+00 2.8102040508853676e+01 4.0277651760695301e+00 0 0 0
259 2 1.4229905357067709e+00 3.1971521296202738e+01 2.0318021449389190e+00 0 0 0
260 2 2.8488855646166518e+00 3.1991672716498645e+01 1.9367702763644863e-02 0 0 0
261 2 4.2725950726947746e+00 3.2021351460029571e+01 2.0441633280727269e+00 0 0 0
262 2 9.9825637446229347e+00 3.0168815887987083e+01 1.1891227610744518e-02 0 0 0
263 2 5.6941808351418652e+00 3.2058794583944248e+01 2.9867155498979118e-02 0 0 0
264 2 7.1148409037991218e+00 3.2101649365310472e+01 2.0523091905765698e+00 0 0 0
265 2 8.5364499388966735e+00 3.2146537205523401e+01 3.5307797355544193e-02 0 0 0
266 2 9.9604898013908443e+00 3.2190986079083586e+01 2.0548330904446188e+00 0 0 0
267 2 3.8528197440850496e-03 2.5916687095479599e+01 6.0481813858162354e+00 0 0 0
268 2 1.4495653497531751e+00 2.3907166721885595e+01 6.0279365647762777e+00 0 0 0
269 2 2.8749421939303850e+00 2.5944226351118427e+01 6.0352572086273213e+00 0 0 0
270 2 4.3285803475014664e+00 2.3950955247133113e+01 6.0063575185946574e+00 0 0 0
271 2 9.1379153396353024e-03 2.3896247613920828e+01 8.0601291946016946e+00 0 0 0
272 2 1.4395338480871196e+00 2.5926368588767023e+01 8.0603634786918725e+00 0 0 0
273 2 2.8897277964391748e+00 2.3925772075701438e+01 8.0351577801783769e+00 0 0 0
274 2 4.3093809621097385e+00 2.5969325600147627e+01 8.0491747192543830e+00 0 0 0
275 2 5.7420190287368706e+00 2.6000975742237838e+01 6.0263182990754993e+00 0 0 0
276 2 7.2002778688837425e+00 2.4018377822621311e+01 5.9940633716425937e+00 0 0 0
277 2 8.5995975261056934e+00 2.6079905872700483e+01 6.0228536116915183e+00 0 0 0
278 2 5.7658109174570553e+00 2.3982077561880192e+01 8.0179126989717826e+00 0 0 0
279 2 7.1722855525425873e+00 2.6038200687483510e+01 8.0428563658488326e+00 0 0 0
280 2 8.6302643101363277e+00 2.4058037537231900e+01 8.0109722561184640e+00 0 0 0
281 2 1.4274508138947910e+00 2.9959827509602196e+01 4.0414697398594273e+00 0 0 0
282 2 1.4326138880317534e+00 2.7944472342361891e+01 6.0515359568515006e+00 0 0 0
283 2 2.8565035282421873e+00 2.9978208913841190e+01 6.0626251213036726e+00 0 0 0
284 2 4.2842043922530690e+00 3.0005192444732295e+01 4.0455853531204085e+00 0 0 0
285 2 4.2954214730042191e+00 2.7987830921070348e+01 6.0483414951760190e+00 0 0 0
287 2 2.8645421581241344e+00 2.7962149567482804e+01 8.0687624887139773e+00 0 0 0
288 2 5.7102412970647487e+00 3.0039636302721018e+01 6.0662793375551072e+00 0 0 0
289 2 7.1347407805977729e+00 3.0080083452955787e+01 4.0485921539912875e+00 0 0 0
290 2 7.1520200421234703e+00 2.8059140818621792e+01 6.0468260613324940e+00 0 0 0
291 2 8.5584716116002255e+00 3.0124028057511275e+01 6.0684924171126786e+00 0 0 0
292 2 5.7247036790397949e+00 2.8020503942207331e+01 8.0663611973623652e+00 0 0 0
293 2 8.5774487078917740e+00 2.8101963677481972e+01 8.0657840322820569e+00 0 0 0
294 2 1.4229831336934080e+00 3.1971493356879009e+01 6.0698129309749955e+00 0 0 0
295 2 2.8488614038177587e+00 3.1991762894999091e+01 4.0573819859985631e+00 0 0 0
296 2 4.2725818944471836e+00 3.2021324185223961e+01 6.0821710500905057e+00 0 0 0
297 2 9.9825590968418805e+00 3.0168851422017315e+01 4.0499123428470822e+00 0 0 0
298 2 5.6941546273218062e+00 3.2058868454004497e+01 4.0678816120241486e+00 0 0 0
299 2 7.1148296488727274e+00 3.2101618656122412e+01 6.0903184812309705e+00 0 0 0
300 2 8.5364374698215446e+00 3.2146583644365833e+01 4.0733249592910612e+00 0 0 0
301 2 9.9604904176254827e+00 3.2190948537654130e+01 6.0928478304011868e+00 0 0 0
302 2 9.1574401243078567e-03 2.3896391693670626e+01 1.2098138534271781e+01 0 0 0
303 2 1.4395477209159135e+00 2.5926449825737372e+01 1.2098378957670931e+01 0 0 0
304 2 2.8897552008004066e+00 2.3925888682686605e+01 1.2073163780231267e+01 0 0 0
305 2 4.3093962392457534e+00 2.5969391403523549e+01 1.2087188838624872e+01 0 0 0
306 2 3.8714557047282165e-03 2.5916660248204455e+01 1.0086189621146316e+01 0 0 0
307 2 1.4495893851503789e+00 2.3907118284239999e+01 1.0065934059617646e+01 0 0 0
308 2 2.8749565832714290e+00 2.5944178281254239e+01 1.0073265737415261e+01 0 0 0
309 2 4.3285918274597437e+00 2.3950877331596441e+01 1.0044356867875857e+01 0 0 0
310 2 5.7658323580691810e+00 2.3982160271425972e+01 1.2055918467064386e+01 0 0 0
311 2 7.1722973196833797e+00 2.6038249033735255e+01 1.2080870008988548e+01 0 0 0
312 2 8.6302803717767596e+00 2.4058095768489331e+01 1.2048975892443240e+01 0 0 0
313 2 5.7420253043339482e+00 2.6000917253429165e+01 1.0064328321260144e+01 0 0 0
314 2 7.2002676760478561e+00 2.4018286379715846e+01 1.0032066800513613e+01 0 0 0
315 2 8.5995938304937081e+00 2.6079847558961241e+01 1.0060865569133114e+01 0 0 0
317 2 2.8645514812211976e+00 2.7962198280391132e+01 1.2106783188619859e+01 0 0 0
318 2 1.4274564230143800e+00 2.9959733483657047e+01 8.0794858677271950e+00 0 0 0
319 2 1.4326267302476086e+00 2.7944430184132194e+01 1.0089551330798871e+01 0 0 0
320 2 2.8565182598888272e+00 2.9978149292987101e+01 1.0100646654301707e+01 0 0 0
321 2 4.2842124001712385e+00 3.0005100774802504e+01 8.0836022594554446e+00 0 0 0
322 2 4.2954330246652797e+00 2.7987781647190786e+01 1.0086357660063436e+01 0 0 0
323 2 5.7247131489213476e+00 2.8020544203075616e+01 1.2104381441893640e+01 0 0 0
324 2 8.5774561998494789e+00 2.8101995194926200e+01 1.2103803711651597e+01 0 0 0
325 2 5.7102572128832945e+00 3.0039580591885304e+01 1.0104301683577654e+01 0 0 0
326 2 7.1347450424402803e+00 3.0080004825431409e+01 8.0866092203700646e+00 0 0 0
327 2 7.1520273962519134e+00 2.8059092296106009e+01 1.0084843105400067e+01 0 0 0
328 2 8.5584805090176932e+00 3.0123985397134700e+01 1.0106513943179532e+01 0 0 0
329 2 1.4230001896931190e+00 3.1971400611964064e+01 1.0107839445627878e+01 0 0 0
330 2 2.8488758410053912e+00 3.1991645213703329e+01 8.0953981006905966e+00 0 0 0
331 2 4.2726096433882157e+00 3.2021239761432703e+01 1.0120199821557826e+01 0 0 0
251 2 9.9604967680767569e+00 3.2190912090023652e+01 1.0130872858732248e+01 0 0 0
286 2 8.5364441178218122e+00 3.2146502674077425e+01 8.1113410352041164e+00 0 0 0
316 2 7.1148488451376606e+00 3.2101558887354962e+01 1.0128344757173327e+01 0 0 0
332 2 9.9825603485983443e+00 3.0168787293285302e+01 8.0879311369094378e+00 0 0 0
333 2 5.6941653098400398e+00 3.2058768820743538e+01 8.1058958920498512e+00 0 0 0
2083 2 2.1268299247623190e-04 2.7935257430791903e+01 4.0345897944760853e+00 1 0 0
2084 2 2.1784638540367496e-04 2.7935167115849993e+01 8.0726047172215996e+00 1 0 0
2085 2 2.2470045988853826e-04 2.7935220973366778e+01 1.2110626137391948e+01 1 0 0
334 2 1.4180628305476928e+00 3.3979366883775953e+01 2.4289305930128628e-02 0 0 0
335 2 2.8390219820737808e+00 3.4003652451055125e+01 2.0558011333544171e+00 0 0 0
336 2 4.2559145064315862e+00 3.4038431564664357e+01 4.7620358785640825e-02 0 0 0
337 2 1.4104637813751504e+00 3.5984775115473518e+01 2.0593282144281941e+00 0 0 0
338 2 2.8212393744652884e+00 3.6017762695167086e+01 6.1519191871325506e-02 0 0 0
339 2 4.2265053045806500e+00 3.6061797468697172e+01 2.0985892755933957e+00 0 0 0
340 2 5.6704790829179244e+00 3.4080666655800350e+01 2.0753075200232032e+00 0 0 0
341 2 7.0860148565911487e+00 3.4125489697770966e+01 6.2495569483262688e-02 0 0 0
342 2 8.5052596222948047e+00 3.4170331045962094e+01 2.0850147393233294e+00 0 0 0
343 2 9.9299707909267969e+00 3.4212794368734123e+01 6.6724651912749261e-02 0 0 0
344 2 5.6319189707394433e+00 3.6108131655383055e+01 9.3857148310594510e-02 0 0 0
345 2 7.0420794736074317e+00 3.6153592908070664e+01 2.1229302071426148e+00 0 0 0
346 2 8.4605801092771937e+00 3.6194585761138100e+01 1.0957832644959195e-01 0 0 0
347 2 9.8870629614307504e+00 3.6233143522352407e+01 2.1297278683219854e+00 0 0 0
348 2 1.3908902037607693e+00 3.7992942001205762e+01 6.4483120440390937e-02 0 0 0
349 2 2.7830988557712439e+00 3.8043537040167728e+01 2.1182100704959659e+00 0 0 0
350 2 4.1741038844251328e+00 3.8095212835667567e+01 1.2812642728006260e-01 0 0 0
351 2 1.3335094828165264e+00 4.0019619093207339e+01 2.1225697194370006e+00 0 0 0
352 2 2.7066952115476086e+00 4.0082282285958918e+01 1.6205463147368779e-01 0 0 0
353 2 4.0849152862613876e+00 4.0144339897848511e+01 2.2258894294377596e+00 0 0 0
354 2 5.5706937119253697e+00 3.8144668721664395e+01 2.1693689452249725e+00 0 0 0
355 2 6.9803068907641306e+00 3.8183565801441198e+01 1.6582713577433306e-01 0 0 0
356 2 8.4005241790882472e+00 3.8218198840207044e+01 2.1935335154372764e+00 0 0 0
357 2 9.8303098562212217e+00 3.8249669094476857e+01 1.7661036196227875e-01 0 0 0
358 2 5.4861651781597640e+00 4.0181784669300036e+01 2.3951151292485651e-01 0 0 0
359 2 6.9012684820479571e+00 4.0212259941821301e+01 2.2798562309982207e+00 0 0 0
360 2 8.3270711854076165e+00 4.0237076982222760e+01 2.7277925560184452e-01 0 0 0
361 2 9.7604257858046033e+00 4.0261405136669886e+01 2.2951765922104532e+00 0 0 0
362 2 1.1995375487183662e+00 4.2044575153849017e+01 1.8142351997977280e-01 0 0 0
363 2 2.5551826491642400e+00 4.2141980594053045e+01 2.3058044448172286e+00 0 0 0