LAMMPS data file via write_data, version 11 Aug 2017, timestep = 1000

1569 atoms
2 atom types

0.0000000000000000e+00 3.9974370800000003e+01 xlo xhi
0.0000000000000000e+00 5.6532297332691002e+01 ylo yhi
0.0000000000000000e+00 8.0760424760989995e+00 zlo zhi

Masses

1 12.0107
2 55.845

Atoms # atomic

1 2 7.2469267100608858e-01 1.9377902676350363e+00 1.2710260949185515e+00 0 0 0
2 2 2.1906583863051363e+00 1.7099937368515963e+00 3.1017770830227804e+00 0 0 0
3 2 3.5754838609057482e+00 1.7446778551229480e+00 1.0428602896698507e+00 0 0 0
9 2 7.1721320416977075e-01 3.7207285794921612e+00 3.0785581704192007e+00 0 0 0
10 2 2.1813575438197370e+00 3.7852679040469561e+00 1.0551212957859779e+00 0 0 0
13 2 3.5752424294432466e+00 3.7599227516492650e+00 3.0854370196735568e+00 0 0 0
1569 1 7.1795486614261628e-01 6.8026517891147953e-01 5.6787244196924546e-04 0 0 0
4 2 5.0037285755160967e+00 1.7624860136794658e+00 3.0562597928269786e+00 0 0 0
5 2 6.4243365454099326e+00 1.7992462597595518e+00 1.0317772633169622e+00 0 0 0
6 2 7.8470096633057436e+00 1.8395885197113149e+00 3.0480187545229978e+00 0 0 0
7 2 9.2694252939410671e+00 1.8835168807801599e+00 1.0266314005885491e+00 0 0 0
8 2 7.1118670486776137e-01 5.7363831300055308e+00 1.0544880907677652e+00 0 0 0
11 2 2.1363171116640163e+00 5.7440237946609516e+00 3.0851525561213875e+00 0 0 0
12 2 3.5658655771488488e+00 5.7933839045761895e+00 1.0756464899023968e+00 0 0 0
14 2 4.9893474359443877e+00 3.7904477936621226e+00 1.0580013878686489e+00 0 0 0
15 2 4.9686773908640189e+00 5.8139235016287643e+00 3.1037159168070958e+00 0 0 0
16 2 6.3798437938538086e+00 5.8549126991287066e+00 1.0858883373333770e+00 0 0 0
17 2 6.4074165871650441e+00 3.8250368151902867e+00 3.0773781211363622e+00 0 0 0
18 2 7.8258898865265643e+00 3.8673807396927518e+00 1.0568234926659055e+00 0 0 0
19 2 7.7958539623114049e+00 5.8955100771844835e+00 3.1071227574266267e+00 0 0 0
20 2 9.2175123691615344e+00 5.9368467115051873e+00 1.0870233516115950e+00 0 0 0
21 2 9.2475019982474986e+00 3.9102772679693869e+00 3.0739430931320633e+00 0 0 0
22 2 6.8376711494591691e-01 9.7339280389240876e+00 1.0853617302374310e+00 0 0 0
23 2 7.0364085046154945e-01 7.7249557592434241e+00 3.0843604423174233e+00 0 0 0
24 2 2.1169722711155323e+00 7.7615369718127560e+00 1.0858233074211183e+00 0 0 0
25 2 2.0769240243742191e+00 9.7801205840554850e+00 3.1395526552075563e+00 0 0 0
26 2 3.4686816278455761e+00 9.8329301653398478e+00 1.1491446595603731e+00 0 0 0
27 2 3.5227908787042690e+00 7.7983276235635390e+00 3.1228683122300187e+00 0 0 0
28 2 4.9315183957759761e+00 7.8484253649893532e+00 1.1169178578429522e+00 0 0 0
29 2 4.8644498569386121e+00 9.8793213440098455e+00 3.1904695370514955e+00 0 0 0
30 2 6.2738248678419364e+00 9.9192935006797782e+00 1.1862928549017797e+00 0 0 0
31 2 6.3361049785373007e+00 7.8852374258057649e+00 3.1459777618102072e+00 0 0 0
32 2 7.7514716135640462e+00 7.9244142508697228e+00 1.1306410320459144e+00 0 0 0
33 2 7.6908420570730760e+00 9.9502852147434435e+00 3.2139916665063684e+00 0 0 0
34 2 9.1183459122773467e+00 9.9808423141101503e+00 1.1963263152862105e+00 0 0 0
35 2 9.1750722555629043e+00 7.9608637622549230e+00 3.1501529555459014e+00 0 0 0
36 2 7.1922259456789084e-01 1.6755745489245815e+00 5.0673371745099027e+00 0 0 0
37 2 2.1211424350824091e+00 1.6852447292262103e+00 7.1117889352435517e+00 0 0 0
38 2 3.5855433897725919e+00 1.7290325545072653e+00 5.0975882288734615e+00 0 0 0
44 2 7.1641130638537254e-01 3.7197765516078189e+00 7.1177125437915931e+00 0 0 0
45 2 2.1391903348239096e+00 3.7152735511319190e+00 5.0998940910864059e+00 0 0 0
48 2 3.5631989708234113e+00 3.7397333237242867e+00 7.1110531510689912e+00 0 0 0
39 2 4.9976001873140445e+00 1.7528372053013990e+00 7.0977410693799383e+00 0 0 0
40 2 6.4249536576830479e+00 1.7956254901622035e+00 5.0715355954308237e+00 0 0 0
41 2 7.8468578931787496e+00 1.8376324304386988e+00 7.0861764491527195e+00 0 0 0
42 2 9.2694346961667833e+00 1.8825358814179385e+00 5.0647074570252570e+00 0 0 0
43 2 7.1177351833021396e-01 5.7144849918337490e+00 5.0935729272513939e+00 0 0 0
46 2 2.1377411208745141e+00 5.7418669984645181e+00 7.1235556544256280e+00 0 0 0
47 2 3.5493586142897802e+00 5.7667139579029003e+00 5.1137220655719506e+00 0 0 0
49 2 4.9906459625454094e+00 3.7836762210272310e+00 5.0991353573172020e+00 0 0 0
50 2 4.9645384521002791e+00 5.8065052384037035e+00 7.1370136770670669e+00 0 0 0
51 2 6.3797352416501507e+00 5.8514898356948830e+00 5.1251303423135575e+00 0 0 0
52 2 6.4055611504390999e+00 3.8203019640645977e+00 7.1157826410638725e+00 0 0 0
53 2 7.8259277614249401e+00 3.8656130520269674e+00 5.0953697536441966e+00 0 0 0
54 2 7.7951257681952200e+00 5.8934898530597630e+00 7.1451200118137521e+00 0 0 0
55 2 9.2174597015770168e+00 5.9359639504126660e+00 5.1252676540705773e+00 0 0 0
56 2 9.2473828970985412e+00 3.9093166612252039e+00 7.1119731876390508e+00 0 0 0
57 2 6.8378475720959031e-01 9.7292495575286253e+00 5.1235717644167851e+00 0 0 0
58 2 7.0359559905493174e-01 7.7232762641246753e+00 7.1215617258306922e+00 0 0 0
59 2 2.1158376049570262e+00 7.7520234331671647e+00 5.1241224925737718e+00 0 0 0
60 2 2.0769582983866441e+00 9.7791097697609537e+00 7.1771027283025273e+00 0 0 0
61 2 3.4679864776366260e+00 9.8288202613732665e+00 5.1873052617317752e+00 0 0 0
62 2 3.5232854047521536e+00 7.7967739367389202e+00 7.1602354568930480e+00 0 0 0
63 2 4.9256447121644147e+00 7.8381447437224114e+00 5.1550777706191333e+00 0 0 0
64 2 4.8645300917778025e+00 9.8784856451318763e+00 7.2280724459871299e+00 0 0 0
65 2 6.2717946042754837e+00 9.9152514797236009e+00 5.2244722223626621e+00 0 0 0
66 2 6.3348102156061206e+00 7.8825125635286728e+00 7.1823120161401510e+00 0 0 0
67 2 7.7512420132507671e+00 7.9227232081352579e+00 5.1690739633879428e+00 0 0 0
68 2 7.6904783151044125e+00 9.9492668343877479e+00 7.2514333653779701e+00 0 0 0
69 2 9.1181618774988369e+00 9.9800415076423814e+00 5.2344818153782597e+00 0 0 0
70 2 9.1747863494708515e+00 7.9600099451967044e+00 7.1881142342941438e+00 0 0 0
71 2 4.9238034233836908e-01 1.3782233344882087e+01 1.1962496434770395e+00 0 0 0
72 2 6.2620907522694114e-01 1.1756346455790366e+01 3.1406542192425091e+00 0 0 0
73 2 1.9995075878238970e+00 1.1819164755242953e+01 1.1805162284289239e+00 0 0 0
74 2 1.8460793706133618e+00 1.3876896781623810e+01 3.3221424881864969e+00 0 0 0
75 2 3.2486943533509005e+00 1.3917723023863093e+01 1.3676341038994875e+00 0 0 0
76 2 3.3771886394363895e+00 1.1879427436687322e+01 3.2449270939940607e+00 0 0 0
77 2 4.7776783570726398e+00 1.1917833264454595e+01 1.2586038348480524e+00 0 0 0
78 2 4.6686219544095202e+00 1.3945902755333089e+01 3.4224929982922654e+00 0 0 0
79 2 6.0981275271819007e+00 1.3965675988248798e+01 1.4224612897490845e+00 0 0 0
80 2 6.1916116633254168e+00 1.1946876512222115e+01 3.2991051664956350e+00 0 0 0
81 2 7.6165114308162138e+00 1.1971869646782082e+01 1.2917728575698004e+00 0 0 0
82 2 7.5313524706266994e+00 1.3983813417113550e+01 3.4512362119478199e+00 0 0 0
83 2 8.9678843402988520e+00 1.4001741419764794e+01 1.4354071661185994e+00 0 0 0
84 2 9.0480918469194176e+00 1.1994274145421439e+01 3.3142727520696953e+00 0 0 0
85 2 5.0672756345129827e-02 1.7852251762106651e+01 1.9539829915011344e+00 0 0 0
86 2 1.5860783179362321e+00 1.5875264112960172e+01 1.7720607200636742e+00 0 0 0
87 2 2.9924362429391227e+00 1.7895516785115696e+01 1.8278920647501304e+00 0 0 0
88 2 4.5427216749700614e+00 1.5942827300554903e+01 1.6406719554711005e+00 0 0 0
89 2 3.9941562625804103e-02 1.5865036404487171e+01 3.9598737673458504e+00 0 0 0
90 2 1.5197131169599549e+00 1.7859623485937021e+01 3.9028327464414057e+00 0 0 0
91 2 3.0747787798355208e+00 1.5915369302377830e+01 3.7042403556539703e+00 0 0 0
92 2 4.4569269377305716e+00 1.7930078395793174e+01 3.8087221633505508e+00 0 0 0
93 2 5.9128933227449068e+00 1.7960208109662563e+01 1.7650272340407409e+00 0 0 0
94 2 7.4414789046091707e+00 1.5986463407039624e+01 1.6082794281508239e+00 0 0 0
95 2 8.8015481940704330e+00 1.8010931709557209e+01 1.7459655204261686e+00 0 0 0
96 2 5.9960557878848153e+00 1.5966385704391758e+01 3.6376847090942377e+00 0 0 0
97 2 7.3609382407775730e+00 1.7986711106444091e+01 3.7700075418559957e+00 0 0 0
98 2 8.8818118248742906e+00 1.6004928723083356e+01 3.6244526309793534e+00 0 0 0
99 2 1.7776582074245696e-02 2.1877088949801433e+01 1.9935462418474044e+00 0 0 0
100 2 1.4875428526339458e+00 1.9873811122765552e+01 1.9390594128055654e+00 0 0 0
101 2 2.9111515664536496e+00 2.1909340998547115e+01 1.9507284976377681e+00 0 0 0
102 2 4.3969844306185726e+00 1.9927484281077373e+01 1.8799144164565376e+00 0 0 0
103 2 3.2723793915381556e-02 1.9862546961657745e+01 3.9966156031845372e+00 0 0 0
104 2 1.4654149274613162e+00 2.1889974823908361e+01 3.9897615068998697e+00 0 0 0
105 2 2.9415941546678068e+00 1.9895528078134603e+01 3.9250371122697079e+00 0 0 0
106 2 4.3563955492614905e+00 2.1935746541046051e+01 3.9533233890595554e+00 0 0 0
107 2 5.8004173283319611e+00 2.1967953468739314e+01 1.9220045633779219e+00 0 0 0
108 2 7.2933519303552350e+00 1.9991337397557096e+01 1.8497744979666786e+00 0 0 0
109 2 8.6741236221452773e+00 2.2038676066956487e+01 1.9106993170005717e+00 0 0 0
110 2 5.8481337207014583e+00 1.9959791001117303e+01 3.8803057152811817e+00 0 0 0
111 2 7.2402254343168275e+00 2.2002443116865020e+01 3.9331147540103455e+00 0 0 0
112 2 8.7312835021971562e+00 2.0022266520487008e+01 3.8641530095004710e+00 0 0 0
113 2 4.9232299494356602e-01 1.3780886118270246e+01 5.2341042374106985e+00 0 0 0
114 2 6.2613840373479901e-01 1.1755684205743897e+01 7.1784453171447398e+00 0 0 0
115 2 1.9993933263858430e+00 1.1816972539448246e+01 5.2186605423471146e+00 0 0 0
116 2 1.8460143779405083e+00 1.3876366277972693e+01 7.3598575399698971e+00 0 0 0
117 2 3.2487195610980790e+00 1.3916622018350106e+01 5.4057237300857812e+00 0 0 0
118 2 3.3772190694947835e+00 1.1878872092339130e+01 7.2826990540388978e+00 0 0 0
119 2 4.7774021249971534e+00 1.1915998258001190e+01 5.2967088908966335e+00 0 0 0
120 2 4.6686276330316430e+00 1.3945605044301754e+01 7.4604216459111026e+00 0 0 0
121 2 6.0979586479366663e+00 1.3964896614720182e+01 5.4605188899788519e+00 0 0 0
122 2 6.1916263094581643e+00 1.1946418335911691e+01 7.3369593347592641e+00 0 0 0
123 2 7.6157557147620674e+00 1.1970277924340902e+01 5.3298747678997325e+00 0 0 0
124 2 7.5313389718122101e+00 1.3983588948504494e+01 7.4891685687279557e+00 0 0 0
125 2 8.9675881810511076e+00 1.4001109898631032e+01 5.4734663208309193e+00 0 0 0
126 2 9.0479910846064229e+00 1.1993890817442308e+01 7.3520843131375315e+00 0 0 0
127 2 3.9788897693105126e-02 1.5865323604386694e+01 7.9978671973388726e+00 0 0 0
128 2 1.5197579354563298e+00 1.7859604907320588e+01 7.9407945494564318e+00 0 0 0
129 2 3.0746656834718773e+00 1.5915163605343084e+01 7.7421970122600232e+00 0 0 0
130 2 4.4569084957907741e+00 1.7929962186173029e+01 7.8467089258174081e+00 0 0 0
131 2 5.0679503585153746e-02 1.7852009169731623e+01 5.9919902001368701e+00 0 0 0
132 2 1.5859717317803719e+00 1.5874567494656310e+01 5.8099707482890857e+00 0 0 0
133 2 2.9923679801023848e+00 1.7895228258073260e+01 5.8659360139479872e+00 0 0 0
134 2 4.5426134880675244e+00 1.5942370853292315e+01 5.6787485114215634e+00 0 0 0
135 2 5.9960479962452915e+00 1.5966238649894969e+01 7.6756343726057059e+00 0 0 0
136 2 7.3609312939892382e+00 1.7986636561746806e+01 7.8080021412053489e+00 0 0 0
137 2 8.8817978445915742e+00 1.6004822215594650e+01 7.6624310183609508e+00 0 0 0
138 2 5.9128418842075279e+00 1.7959998887378042e+01 5.8030675172663067e+00 0 0 0
139 2 7.4413873953997456e+00 1.5986126557704655e+01 5.6463198024958112e+00 0 0 0
140 2 8.8015054845662029e+00 1.8010782575776375e+01 5.7839957862442990e+00 0 0 0
141 2 3.2767383231507914e-02 1.9862587782727488e+01 8.0346150030270813e+00 0 0 0
142 2 1.4654329078107333e+00 2.1889983720665935e+01 8.0277741453071645e+00 0 0 0
143 2 2.9416127807777124e+00 1.9895504894941485e+01 7.9630433145861614e+00 0 0 0
144 2 4.3564013658305178e+00 2.1935731844690757e+01 7.9913380993373924e+00 0 0 0
145 2 1.7778604955285490e-02 2.1877034170230917e+01 6.0315648276263829e+00 0 0 0
146 2 1.4875419711070381e+00 1.9873694201040802e+01 5.9770783572144461e+00 0 0 0
147 2 2.9111500976709634e+00 2.1909283775497741e+01 5.9887490173342384e+00 0 0 0
148 2 4.3969563289613403e+00 1.9927355321951712e+01 5.9179407221611049e+00 0 0 0
149 2 5.8481242941178504e+00 1.9959737619061478e+01 7.9183120098053159e+00 0 0 0
150 2 7.2402209076038444e+00 2.2002418862155583e+01 7.9711295343528654e+00 0 0 0
151 2 8.7312783618665275e+00 2.0022230866163689e+01 7.9021631375215584e+00 0 0 0
152 2 5.8004058259740274e+00 2.1967895435334196e+01 5.9600279207686588e+00 0 0 0
153 2 7.2933290272778111e+00 1.9991241681643359e+01 5.8878040226234152e+00 0 0 0
154 2 8.6741134128584463e+00 2.2038633074495273e+01 5.9487240466529920e+00 0 0 0
155 2 4.1170229939441923e-03 2.5917093768556072e+01 2.0103666353005329e+00 0 0 0
156 2 1.4499325744362526e+00 2.3907780371355706e+01 1.9903522303301644e+00 0 0 0
157 2 2.8753064057154778e+00 2.5944679600000153e+01 1.9974535363597576e+00 0 0 0
158 2 4.3290609466401220e+00 2.3951603857498789e+01 1.9687956999959173e+00 0 0 0
159 2 9.4354918870795650e-03 2.3896874303373618e+01 4.0225471497833718e+00 0 0 0
160 2 1.4398387523774816e+00 2.5926845892048789e+01 4.0225614171687321e+00 0 0 0
161 2 2.8901436172722748e+00 2.3926473812630199e+01 3.9975970336604401e+00 0 0 0
162 2 4.3097924919108559e+00 2.5969841931040175e+01 4.0113828043901112e+00 0 0 0
163 2 5.7424831202293865e+00 2.6001446107179227e+01 1.9885242898055426e+00 0 0 0
164 2 7.2008670773323651e+00 2.4019020403823117e+01 1.9565164716502774e+00 0 0 0
165 2 8.6001398135839704e+00 2.6080361836797138e+01 1.9850637280616010e+00 0 0 0
166 2 5.7663543874262064e+00 2.3982805512370600e+01 3.9803697958937621e+00 0 0 0
167 2 7.1727960848562864e+00 2.6038719448224654e+01 4.0050704174872553e+00 0 0 0
168 2 8.6309031724491305e+00 2.4058721516749454e+01 3.9734353931147641e+00 0 0 0
169 2 1.4276977058022584e+00 2.9959900111818346e+01 3.1931712098147869e-03 0 0 0
170 2 1.4328876573726947e+00 2.7944744222801241e+01 2.0134963784637052e+00 0 0 0
171 2 2.8567930622061972e+00 2.9978343771607104e+01 2.0243508195952704e+00 0 0 0
172 2 4.2845365683682877e+00 3.0005292554235435e+01 7.3069793296659091e-03 0 0 0
173 2 4.2957869043102024e+00 2.7988130950733350e+01 2.0103054029386045e+00 0 0 0
175 2 2.8648561256338652e+00 2.7962480299817919e+01 4.0307283681825172e+00 0 0 0
176 2 5.7106096363321166e+00 3.0039793095447862e+01 2.0280030891588705e+00 0 0 0
177 2 7.1351395682564114e+00 3.0080207533996482e+01 1.0312076486189722e-02 0 0 0
178 2 7.1524647391354135e+00 2.8059450334740717e+01 2.0087919801086467e+00 0 0 0
179 2 8.5588940549106525e+00 3.0124197761294877e+01 2.0302143650071129e+00 0 0 0
180 2 5.7251074786639764e+00 2.8020853579374577e+01 4.0283293541362957e+00 0 0 0
181 2 8.5779214814630667e+00 2.8102308766191477e+01 4.0277523252802609e+00 0 0 0
182 2 1.4232118179257243e+00 3.1971465730971691e+01 2.0313036851529001e+00 0 0 0
183 2 2.8491378339591558e+00 3.1991692310414667e+01 1.8864184531051351e-02 0 0 0
184 2 4.2728943916337858e+00 3.2021325580042550e+01 2.0436552991193619e+00 0 0 0
185 2 9.9829962681676214e+00 3.0168989485818852e+01 1.1632239593139162e-02 0 0 0
186 2 5.6945012880503816e+00 3.2058835268048121e+01 2.9356563064038194e-02 0 0 0
187 2 7.1152005395441948e+00 3.2101648528357309e+01 2.0517970839440625e+00 0 0 0
188 2 8.5368301918960441e+00 3.2146581360993267e+01 3.4797979795246084e-02 0 0 0
189 2 9.9608972501054449e+00 3.2190994955597503e+01 2.0543255377768972e+00 0 0 0
190 2 9.4432770312049066e-03 2.3896883561673583e+01 8.0605651595391521e+00 0 0 0
191 2 1.4398420997446137e+00 2.5926848115351213e+01 8.0605811910970271e+00 0 0 0
192 2 2.8901504254058725e+00 2.3926474381155376e+01 8.0356145038280022e+00 0 0 0
193 2 4.3097951068184175e+00 2.5969840734796772e+01 8.0494024477506176e+00 0 0 0
194 2 4.1186402504574888e-03 2.5917080909917690e+01 6.0483871743297337e+00 0 0 0
195 2 1.4499331722113973e+00 2.3907752485621902e+01 6.0283726350898146e+00 0 0 0
196 2 2.8753065022617545e+00 2.5944664832329952e+01 6.0354745367946236e+00 0 0 0
197 2 4.3290597008500571e+00 2.3951576036146886e+01 6.0068169648184346e+00 0 0 0
198 2 5.7663561517307986e+00 2.3982797561703908e+01 8.0183879070081421e+00 0 0 0
199 2 7.1727966654753743e+00 2.6038715435869221e+01 8.0430903033400281e+00 0 0 0
200 2 8.6309011440663124e+00 2.4058710921925421e+01 8.0114535876571473e+00 0 0 0
201 2 5.7424824153597713e+00 2.6001432110144346e+01 6.0265456521022580e+00 0 0 0
202 2 7.2008621824481356e+00 2.4018994180961034e+01 5.9945387615133736e+00 0 0 0
203 2 8.6001378945536100e+00 2.6080349428575975e+01 6.0230854662296416e+00 0 0 0
205 2 2.8648577725868298e+00 2.7962480004270244e+01 8.0687491689075355e+00 0 0 0
206 2 1.4276963971215617e+00 2.9959901675263108e+01 4.0412140680497908e+00 0 0 0
207 2 1.4328882708681667e+00 2.7944735282813852e+01 6.0515172905983237e+00 0 0 0
208 2 2.8567937493496727e+00 2.9978334731899238e+01 6.0623717965727826e+00 0 0 0
209 2 4.2845351190686340e+00 3.0005293929982841e+01 4.0453278716391949e+00 0 0 0
210 2 4.2957870962104634e+00 2.7988121679570739e+01 6.0483265465831222e+00 0 0 0
211 2 5.7251087404810042e+00 2.8020852285668447e+01 8.0663501243813496e+00 0 0 0
212 2 8.5779219300898788e+00 2.8102306873121787e+01 8.0657731930293828e+00 0 0 0
213 2 5.7106106065007349e+00 3.0039784549909612e+01 6.0660242567571503e+00 0 0 0
214 2 7.1351382098879812e+00 3.0080208566545146e+01 4.0483329535057901e+00 0 0 0
215 2 7.1524647415834890e+00 2.8059441991585896e+01 6.0468133061017832e+00 0 0 0
216 2 8.5588944208723152e+00 3.0124191112377897e+01 6.0682356175708856e+00 0 0 0
217 2 1.4232125526723622e+00 3.1971451878391878e+01 6.0693243776509709e+00 0 0 0
218 2 2.8491354174169907e+00 3.1991695944482760e+01 4.0568841431897598e+00 0 0 0
219 2 4.2728967599836043e+00 3.2021312130522347e+01 6.0816762807218208e+00 0 0 0
174 2 9.9608980046680724e+00 3.2190987177315392e+01 6.0923469972382405e+00 0 0 0
204 2 8.5368290686545922e+00 3.2146580195926170e+01 4.0728182975670153e+00 0 0 0
220 2 9.9829959812393874e+00 3.0168989500688546e+01 4.0496532938992003e+00 0 0 0
221 2 5.6944982409442106e+00 3.2058837375577497e+01 4.0673763166548103e+00 0 0 0
222 2 7.1152016427819422e+00 3.2101638511316459e+01 6.0898181078352778e+00 0 0 0
1389 2 4.4187841047715892e-04 2.7935457130322849e+01 4.0345672941316080e+00 1 0 0
1390 2 4.4342467761993021e-04 2.7935458042417025e+01 8.0725881358142644e+00 1 0 0
223 2 1.4182570154871899e+00 3.3979254769680566e+01 2.3544034555315764e-02 0 0 0
224 2 2.8392693472107049e+00 3.4003466913642058e+01 2.0550475363817391e+00 0 0 0
225 2 4.2561762828290677e+00 3.4038348556506968e+01 4.6857979439180665e-02 0 0 0
226 2 1.4106521269096077e+00 3.5984410122479908e+01 2.0583356923825002e+00 0 0 0
227 2 2.8214325968444487e+00 3.6017569540164459e+01 6.0507348538122688e-02 0 0 0
228 2 4.2267619806480816e+00 3.6061493430794009e+01 2.0975653939077263e+00 0 0 0
229 2 5.6707908220454142e+00 3.4080518307834573e+01 2.0745405429475365e+00 0 0 0
230 2 7.0863512469583485e+00 3.4125406460726566e+01 6.1730658881582127e-02 0 0 0
231 2 8.5056408441432829e+00 3.4170191138087489e+01 2.0842526739117382e+00 0 0 0
232 2 9.9303739207848380e+00 3.4212701449459203e+01 6.5967632424827227e-02 0 0 0
233 2 5.6322074035562188e+00 3.6107930412060760e+01 9.2833996103541955e-02 0 0 0
234 2 7.0424398818099432e+00 3.6153290200496528e+01 2.1219065392487004e+00 0 0 0
235 2 8.4609834231734613e+00 3.6194348216117675e+01 1.0856111498378299e-01 0 0 0
236 2 9.8875140576057667e+00 3.6232845525998350e+01 2.1287222938154264e+00 0 0 0
237 2 1.3909954352303318e+00 3.7992669107458369e+01 6.3232669991008350e-02 0 0 0
238 2 2.7832661463999719e+00 3.8043066141092922e+01 2.1169352454977042e+00 0 0 0
239 2 4.1743141141389550e+00 3.8094914949856097e+01 1.2685078344104916e-01 0 0 0
240 2 1.3335285825383991e+00 4.0018990222101181e+01 2.1210563279509582e+00 0 0 0
241 2 2.7067845900990442e+00 4.0081964284743371e+01 1.6058326354253333e-01 0 0 0
242 2 4.0851511380231447e+00 4.0143656843868690e+01 2.2243481001116643e+00 0 0 0
243 2 5.5710181555690683e+00 3.8144183176040336e+01 2.1680785513593039e+00 0 0 0
244 2 6.9807207622466425e+00 3.8183170572041789e+01 1.6454331159780461e-01 0 0 0
245 2 8.4010240887293293e+00 3.8217690852628017e+01 2.1922598258436707e+00 0 0 0
246 2 9.8308112793458111e+00 3.8249294888259818e+01 1.7533611824871623e-01 0 0 0
247 2 5.4865915792959754e+00 4.0181212282203354e+01 2.3796848387674227e-01 0 0 0
248 2 6.9018401065266870e+00 4.0211472188747479e+01 2.2783061990122371e+00 0 0 0
249 2 8.3276545097427661e+00 4.0236515772578073e+01 2.7121301495572486e-01 0 0 0
250 2 9.7610976418090356e+00 4.0260736038835873e+01 2.2936430206527030e+00 0 0 0
251 2 1.1992624259780593e+00 4.2044229618246177e+01 1.8005920838817860e-01 0 0 0
252 2 2.5552894211416715e+00 4.2141231824697016e+01 2.3042396774627782e+00 0 0 0
253 2 3.9597026677100162e+00 4.2180663247892085e+01 3.4833127166845196e-01 0 0 0
254 2 2.3059019397663452e+00 4.4136292552725394e+01 7.4388218583531862e-01 0 0 0
255 2 7.5808703170952563e-01 4.4124386461537085e+01 2.9325743001379978e+00 0 0 0
256 2 3.7916582701201400e+00 4.4178090565099581e+01 2.6799058195498113e+00 0 0 0
257 2 5.3807449332457118e+00 4.2209289363783206e+01 2.4023725607368780e+00 0 0 0
258 2 6.8108168398578899e+00 4.2229044312948389e+01 4.0230076354114247e-01 0 0 0
259 2 8.2445451160318797e+00 4.2248242972886963e+01 2.4310828396976354e+00 0 0 0
260 2 9.6814565228255987e+00 4.2266677851658258e+01 4.1549402352203335e-01 0 0 0
261 2 5.2590736003867171e+00 4.4205727173224439e+01 6.1830409026422306e-01 0 0 0
262 2 8.1564657204471462e+00 4.4250755596462746e+01 5.8799607262306952e-01 0 0 0
263 2 6.7115860274631078e+00 4.4230245538351326e+01 2.6163682360866622e+00 0 0 0
264 2 9.5960664277668553e+00 4.4270331138638404e+01 2.6048605773064839e+00 0 0 0
265 2 1.4182521448693974e+00 3.3979264685960850e+01 4.0615626192819247e+00 0 0 0
266 2 2.8392742663762469e+00 3.4003440352828626e+01 6.0930682141400876e+00 0 0 0
267 2 4.2561685769357469e+00 3.4038355168277583e+01 4.0848754817282913e+00 0 0 0
268 2 1.4106612007446380e+00 3.5984353931948796e+01 6.0963561500774031e+00 0 0 0
269 2 2.8214123882471616e+00 3.6017589609229823e+01 4.0985196522235237e+00 0 0 0
270 2 4.2267652602528036e+00 3.6061453266162012e+01 6.1355840668447188e+00 0 0 0
271 2 5.6707929367135650e+00 3.4080499130484974e+01 6.1125609629232507e+00 0 0 0
272 2 7.0863479909610056e+00 3.4125404425711167e+01 4.0997495311326686e+00 0 0 0
273 2 8.5056422547506489e+00 3.4170176275526110e+01 6.1222742038559197e+00 0 0 0
274 2 9.9303756465393089e+00 3.4212693769346316e+01 4.1039873564887106e+00 0 0 0
275 2 5.6321976201956891e+00 3.6107928712726931e+01 4.1308495730263308e+00 0 0 0
276 2 7.0424418849585475e+00 3.6153258994114658e+01 6.1599279458443004e+00 0 0 0
277 2 8.4609872358357645e+00 3.6194330495758713e+01 4.1465791053690149e+00 0 0 0
278 2 9.8875200679873601e+00 3.6232817602229645e+01 6.1667462332542637e+00 0 0 0
279 2 1.3909440689851238e+00 3.7992728044821874e+01 4.1012333610148790e+00 0 0 0
280 2 2.7832676413653332e+00 3.8042978279654157e+01 6.1549487854010358e+00 0 0 0
281 2 4.1742842750675404e+00 3.8094919645264959e+01 4.1648578296622425e+00 0 0 0
282 2 1.3334810243724207e+00 4.0018770378014686e+01 6.1590574649403997e+00 0 0 0
283 2 2.7066972623473795e+00 4.0082004805390540e+01 4.1985632794650636e+00 0 0 0
284 2 4.0851387827417396e+00 4.0143493101916810e+01 6.2623592669021191e+00 0 0 0
285 2 5.5710193072718974e+00 3.8144114285825019e+01 6.2060985665152986e+00 0 0 0
286 2 6.9807288587114940e+00 3.8183130120980692e+01 4.2025578517923821e+00 0 0 0
287 2 8.4010370443171425e+00 3.8217627917551617e+01 6.2302877788241506e+00 0 0 0
288 2 9.8308182162387840e+00 3.8249263425130344e+01 4.2133502819670410e+00 0 0 0
289 2 5.4866084400171404e+00 4.0181122078661467e+01 4.2759740470756542e+00 0 0 0
290 2 6.9018661578298159e+00 4.0211325249551535e+01 6.3163441359200316e+00 0 0 0
291 2 8.3276666204679000e+00 4.0236444618312390e+01 4.3092168369398705e+00 0 0 0
292 2 9.7611390017440698e+00 4.0260616680905024e+01 6.3316735867875407e+00 0 0 0
293 2 7.5814120465308910e-01 4.4123168321792839e+01 6.9704768960916441e+00 0 0 0
294 2 3.7917619816104406e+00 4.4177053310079579e+01 6.7179918299008383e+00 0 0 0
295 2 1.1990586301753610e+00 4.2044506526710109e+01 4.2180045482777144e+00 0 0 0
296 2 2.5551546317891436e+00 4.2140762532875208e+01 6.3420675717484105e+00 0 0 0
297 2 3.9597952495555693e+00 4.2180499086605735e+01 4.3863547090137054e+00 0 0 0
298 2 2.3062936033651167e+00 4.4135915168748419e+01 4.7814342272846941e+00 0 0 0
299 2 6.7118315202215735e+00 4.4229478762156795e+01 6.6544441117829720e+00 0 0 0
300 2 9.5964008854104126e+00 4.4269755641727457e+01 6.6429249387334695e+00 0 0 0
301 2 5.3808022206587784e+00 4.2208923041091147e+01 6.4404378995582041e+00 0 0 0
302 2 6.8108404750821769e+00 4.2228886823708493e+01 4.4402709817531649e+00 0 0 0
303 2 8.2446451162253460e+00 4.2247946559272130e+01 6.4691258486647136e+00 0 0 0
304 2 9.6814772125693906e+00 4.2266575667748512e+01 4.4534733010935881e+00 0 0 0
305 2 5.2591729384909334e+00 4.4205407823105730e+01 4.6561966956654164e+00 0 0 0
306 2 8.1565105960191140e+00 4.4250514051560884e+01 4.6259244545272598e+00 0 0 0
307 2 7.6917497563143311e-01 4.6110743999911620e+01 9.2913521068028171e-01 0 0 0
308 2 3.7110963656878395e+00 4.6158284177254032e+01 8.0430882260731063e-01 0 0 0
309 2 2.2071518668166203e+00 4.8134458575886995e+01 9.1505104010116634e-01 0 0 0
310 2 2.2382711447902404e+00 4.6121284085366497e+01 2.8779528211251226e+00 0 0 0
311 2 7.5201317131190426e-01 4.8122849011918888e+01 2.9719577743140118e+00 0 0 0
312 2 3.6613422992171842e+00 4.8159203705661639e+01 2.9013461124564039e+00 0 0 0
313 2 6.6302998623548346e+00 4.6224670236413807e+01 7.4363790200767776e-01 0 0 0
314 2 9.5162005705888273e+00 4.6277612858455882e+01 7.2651101507868721e-01 0 0 0
315 2 5.1169955244887726e+00 4.8191655519532958e+01 8.5740203243246171e-01 0 0 0
316 2 8.0100085656058884e+00 4.8259336674359666e+01 8.2935662731084070e-01 0 0 0
317 2 5.1748913206673182e+00 4.6194110732546562e+01 2.7861145895844550e+00 0 0 0
318 2 8.0768391146551171e+00 4.6252644911781751e+01 2.7494574215780698e+00 0 0 0
319 2 6.5661240644358454e+00 4.8226704027134772e+01 2.8585307873735974e+00 0 0 0
320 2 9.4459019536942215e+00 4.8291498316248990e+01 2.8443280912606936e+00 0 0 0
321 2 7.3782525174413505e-01 5.0135590528267706e+01 9.6834163235729442e-01 0 0 0
322 2 3.6336805139260266e+00 5.0171790363528395e+01 9.2668131983418345e-01 0 0 0
323 2 2.1750508371891266e+00 5.2167374875473591e+01 9.6242522651770157e-01 0 0 0
324 2 2.1863151456708358e+00 5.0152954859399124e+01 2.9643365064923839e+00 0 0 0
325 2 7.3042574677876815e-01 5.2159544758545152e+01 2.9925312988807340e+00 0 0 0
326 2 3.6101827871831205e+00 5.2196075352278974e+01 2.9708921418357348e+00 0 0 0
327 2 6.5191546723049356e+00 5.0237650555512751e+01 9.0063764398912050e-01 0 0 0
328 2 9.3880811507992838e+00 5.0311575910554346e+01 8.9095000633360066e-01 0 0 0
329 2 5.0489192342591238e+00 5.2224187237301940e+01 9.4636109531475021e-01 0 0 0
330 2 7.9164423520561602e+00 5.2295153770167936e+01 9.3579775435631152e-01 0 0 0
331 2 5.0761091022874520e+00 5.0203698500026078e+01 2.9298663042262385e+00 0 0 0
332 2 7.9570647426667662e+00 5.0273504973660110e+01 2.9120049087813693e+00 0 0 0
333 2 6.4857594623051247e+00 5.2255536979010550e+01 2.9572786760526562e+00 0 0 0
334 2 9.3441351863090549e+00 5.2335555339365136e+01 2.9539927931521892e+00 0 0 0
335 2 7.2263756677130464e-01 5.6218006994280294e+01 3.0162247327422973e+00 0 0 0
336 2 2.1280358230772554e+00 5.6237466574025994e+01 9.7447421538415091e-01 0 0 0
337 2 3.5944225743998164e+00 5.6238285533295851e+01 2.9873949224448939e+00 0 0 0
339 2 7.2542249807143611e-01 5.4167265497171833e+01 9.6694667582616989e-01 0 0 0
340 2 3.5926576513895467e+00 5.4225260240682026e+01 9.7222075863253776e-01 0 0 0
341 2 2.1583360047577411e+00 5.4201512638871463e+01 2.9842553298992476e+00 0 0 0
338 2 5.0097696725719940e+00 5.6274517367587613e+01 9.8519397122177665e-01 0 0 0
342 2 6.4408395657280728e+00 5.6305094218764488e+01 3.0104279907948244e+00 0 0 0
343 2 7.8654365787677119e+00 5.6345960455346216e+01 9.9473804685208800e-01 0 0 0
344 2 9.2890073671691358e+00 5.6388778853580952e+01 3.0150245254815569e+00 0 0 0
345 2 6.4588245688645083e+00 5.4281894332665836e+01 9.6625082295814746e-01 0 0 0
346 2 9.3121460369044815e+00 5.4362144029481520e+01 9.6756137453269431e-01 0 0 0
347 2 5.0323534922973083e+00 5.4243803410630775e+01 2.9840522658115631e+00 0 0 0
348 2 7.8875363477131932e+00 5.4319132044116664e+01 2.9854227106662541e+00 0 0 0
349 2 2.2383647685260657e+00 4.6119092251375733e+01 6.9160900624339305e+00 0 0 0
350 2 7.5196143004708516e-01 4.8118361906905193e+01 7.0101611732353764e+00 0 0 0
351 2 3.6622225547263279e+00 4.8154881923922922e+01 6.9395236886072933e+00 0 0 0
352 2 7.6939482661131375e-01 4.6110128572654773e+01 4.9668031605233089e+00 0 0 0
353 2 3.7112148592487983e+00 4.6157717935592075e+01 4.8421037425553548e+00 0 0 0
354 2 2.2072496717448060e+00 4.8133457400852762e+01 4.9525579891140845e+00 0 0 0
355 2 5.1753698729142279e+00 4.6192217800658923e+01 6.8242130739466420e+00 0 0 0
356 2 8.0777220284011513e+00 4.6251126379198929e+01 6.7875643281594957e+00 0 0 0
357 2 6.5683889964398476e+00 4.8222733488172231e+01 6.8967052094931480e+00 0 0 0
358 2 9.4462372407853614e+00 4.8290640696628330e+01 6.8824944441809386e+00 0 0 0
359 2 6.6303766512477775e+00 4.6224153528627774e+01 4.7814777564586928e+00 0 0 0
360 2 9.5163514603791057e+00 4.6277212862328966e+01 4.7643241781260537e+00 0 0 0
361 2 5.1170449940673395e+00 4.8190643268436915e+01 4.8950353491889160e+00 0 0 0
362 2 8.0104838184828893e+00 4.8258252767519629e+01 4.8668371625752460e+00 0 0 0
363 2 2.1877749472396988e+00 5.0143312840160846e+01 7.0026248417206567e+00 0 0 0
364 2 7.3047887859915861e-01 5.2137543298075286e+01 7.0313851675560262e+00 0 0 0