LAMMPS data file via write_data, version 11 Aug 2017, timestep = 1000

1153 atoms
2 atom types

0.0000000000000000e+00 5.5952463570749003e+01 xlo xhi
0.0000000000000000e+00 3.2304169904395003e+01 ylo yhi
0.0000000000000000e+00 7.4183187028070003e+00 zlo zhi

Masses

1 12.0107
2 55.845

Atoms # atomic

1 2 2.5999377210786849e+00 8.8861025862279330e-01 6.3192041329750170e-01 0 0 0
2 2 1.1525254010783985e+00 2.8155971995324038e+00 2.0634131846899226e+00 0 0 0
3 2 3.4650381465699538e+00 2.9949122186482446e+00 1.2672084757807960e+00 0 0 0
4 2 2.3230752455619230e+00 8.5876882867372828e-01 2.9748903717179456e+00 0 0 0
27 2 3.4245164477397148e+00 2.9430452066247836e+00 3.7298240258022277e+00 0 0 0
1153 1 1.1482216777439709e+00 7.9690776817250442e-01 7.0104241480963427e+00 0 0 -1
5 2 4.6551330097116832e+00 9.7831991058054724e-01 2.0790496877614633e+00 0 0 0
6 2 6.9516755539683723e+00 1.1244487735918396e+00 1.2213397839015250e+00 0 0 0
7 2 5.7264945470946254e+00 3.0937512181260094e+00 4.0196958372116759e-01 0 0 0
8 2 5.7087280863379721e+00 3.0924389433939821e+00 2.8768546804022965e+00 0 0 0
32 2 6.9414531448041332e+00 1.1247482691792980e+00 3.6952013209741867e+00 0 0 0
9 2 9.2673182271644432e+00 1.2831961335869446e+00 4.0366361051667426e-01 0 0 0
10 2 8.0051500748814721e+00 3.2353569954505175e+00 2.0584556142642092e+00 0 0 0
11 2 1.0316571771410706e+01 3.3840314478943987e+00 1.2561922861865737e+00 0 0 0
12 2 9.2623880008712778e+00 1.2830767332051836e+00 2.8764688884574907e+00 0 0 0
13 2 2.2074176771574159e+00 4.8741259538650805e+00 3.4834534494543007e-01 0 0 0
14 2 1.0179732495162919e+00 6.8816364420100067e+00 1.9743931659997418e+00 0 0 0
15 2 3.1716312459676335e+00 6.9972118224153288e+00 1.1114404637610997e+00 0 0 0
16 2 2.2167312316574881e+00 4.8880425292245446e+00 2.8282752689205490e+00 0 0 0
42 2 3.1778369233458084e+00 6.9996604630930079e+00 3.5868082336936991e+00 0 0 0
17 2 4.4772609442818885e+00 5.0776368627644608e+00 2.0380216662700694e+00 0 0 0
18 2 6.7428200842753663e+00 5.2047991592670853e+00 1.2421593310237626e+00 0 0 0
19 2 5.4211673829997764e+00 7.1698152441052612e+00 4.4150073214830388e-01 0 0 0
21 2 5.4256137285447892e+00 7.1768903374237887e+00 2.9160339967427609e+00 0 0 0
47 2 6.7392541060482882e+00 5.2024941572584371e+00 3.7152377739550393e+00 0 0 0
20 2 7.7133216759673058e+00 7.2923512519691416e+00 2.1588484136291544e+00 0 0 0
22 2 9.0351274596316404e+00 5.3369704360677055e+00 4.5574120494495385e-01 0 0 0
24 2 1.0020437230406456e+01 7.4224677245766371e+00 1.3713439696180088e+00 0 0 0
25 2 9.0334121503134153e+00 5.3356620683026268e+00 2.9285905608623510e+00 0 0 0
26 2 1.1161719193708739e+00 2.8120388012217710e+00 4.5245960845660314e+00 0 0 0
28 2 2.2958716942749087e+00 8.5455037565002534e-01 5.4190087384624306e+00 0 0 0
29 2 1.1377071129011858e+00 2.7683175188948463e+00 7.0039405330932647e+00 0 0 0
30 2 3.4431927088936152e+00 2.9347323473950371e+00 6.1984540614840888e+00 0 0 0
31 2 4.6228118872621815e+00 9.7413330332393500e-01 4.5419663286354623e+00 0 0 0
33 2 4.7023567080482724e+00 9.7672471306210018e-01 6.9938029337687260e+00 0 0 0
34 2 6.9709767584907878e+00 1.1261270250730142e+00 6.1612043645672543e+00 0 0 0
35 2 5.7162064538704023e+00 3.0848944549845085e+00 5.3456656798846032e+00 0 0 0
36 2 8.0080654245041956e+00 3.2348032976805601e+00 4.5294477275388321e+00 0 0 0
37 2 1.0317476806359144e+01 3.3835795838445657e+00 3.7282031111388698e+00 0 0 0
38 2 9.2731456110962824e+00 1.2840116437746449e+00 5.3466736255469156e+00 0 0 0
39 2 8.0129096887197591e+00 3.2372521571018567e+00 7.0027125283966347e+00 0 0 0
40 2 1.0319604166844014e+01 3.3847923745577511e+00 6.2010402079343141e+00 0 0 0
41 2 1.0241498355438934e+00 6.8811581603830625e+00 4.4492393001494035e+00 0 0 0
43 2 2.2158398714643290e+00 4.8707317582131520e+00 5.3011898219934066e+00 0 0 0
44 2 1.0214470926112869e+00 6.8832069399484528e+00 6.9214571645416516e+00 0 0 0
45 2 3.1748231266266891e+00 6.9940236753311220e+00 6.0576807178764076e+00 0 0 0
46 2 4.4689955712043501e+00 5.0548577557424803e+00 4.5064243942308257e+00 0 0 0
49 2 4.4688144997627335e+00 5.0571605927335002e+00 6.9776258159747151e+00 0 0 0
50 2 6.7391971412695417e+00 5.2001832677868789e+00 6.1872055011490890e+00 0 0 0
51 2 5.4220286127610011e+00 7.1683032120706249e+00 5.3874285949055958e+00 0 0 0
23 2 1.0019401215320851e+01 7.4219265522261564e+00 6.3168772754209686e+00 0 0 0
48 2 7.7116320803848577e+00 7.2912330940012691e+00 4.6317197898438165e+00 0 0 0
52 2 7.7110365367246994e+00 7.2903886063051813e+00 7.1041621421540739e+00 0 0 0
53 2 9.0334574118636510e+00 5.3357214056574289e+00 5.4011148802808977e+00 0 0 0
54 2 1.0019653875455445e+01 7.4219145210748962e+00 3.8441704457504269e+00 0 0 0
978 2 2.2781132522311509e-03 4.7938196719856982e+00 6.1937172377444636e+00 1 0 0
55 2 1.2439874705127241e+00 8.9895153534141485e+00 7.6189478439601710e-01 0 0 0
56 2 2.4616301572729227e+00 1.0978573899247115e+01 1.5719679493838876e+00 0 0 0
57 2 1.2448293021425165e+00 8.9877610417699128e+00 3.2342680493444300e+00 0 0 0
59 2 6.2700957981226848e+00 9.2113945185713852e+00 1.4600163164627078e+00 0 0 0
60 2 4.8853054396548652e+00 1.1104695243578275e+01 7.2213411207505351e-01 0 0 0
61 2 3.8422024403799191e+00 9.0604891699594461e+00 2.2648997096230912e+00 0 0 0
62 2 4.8854068739380407e+00 1.1105409781605037e+01 3.1949674139776771e+00 0 0 0
63 2 7.2773718310630899e+00 1.1262544813474118e+01 2.3747470921309941e+00 0 0 0
64 2 8.6390511115898754e+00 9.3514159566389523e+00 6.4754474492365732e-01 0 0 0
65 2 9.6397409553744122e+00 1.1417825995087503e+01 1.5529474666000527e+00 0 0 0
66 2 1.0983803710703542e+01 9.4950642366803315e+00 2.3048762906753399e+00 0 0 0
67 2 8.6400083948193078e+00 9.3523674841405668e+00 3.1204805521614434e+00 0 0 0
68 2 1.2028868155905437e+00 1.2959118621185842e+01 8.0680220038339612e-01 0 0 0
69 2 2.3631807893608459e+00 1.4991209103667037e+01 1.6285008307988327e+00 0 0 0
70 2 3.5886850711049147e+00 1.3031339785752664e+01 2.4251630082268392e+00 0 0 0
71 2 1.2028355915604059e+00 1.2958957140859129e+01 3.2795546561432323e+00 0 0 0
72 2 5.7001077590156900e-03 1.4959523332687750e+01 2.4697916668493756e+00 0 0 0
73 2 5.9659912044216350e+00 1.3171346641580568e+01 1.5931143346362375e+00 0 0 0
74 2 4.7129731269478432e+00 1.5099519537383255e+01 7.8995881948217450e-01 0 0 0
75 2 4.7129022876740070e+00 1.5099560722551093e+01 3.2627165359076407e+00 0 0 0
76 2 7.0556135707681582e+00 1.5256188658564831e+01 2.4340412277868451e+00 0 0 0
77 2 8.3283476378217856e+00 1.3335331369158030e+01 7.7027719510678294e-01 0 0 0
78 2 9.3936059786553496e+00 1.5424031998931932e+01 1.6142504427324234e+00 0 0 0
79 2 1.0675742717152131e+01 1.3498220816845343e+01 2.4224115334873466e+00 0 0 0
80 2 8.3284045908063877e+00 1.3335467039886021e+01 3.2430296900523308e+00 0 0 0
82 2 2.4615806822185751e+00 1.0978265866378225e+01 4.0446917870425452e+00 0 0 0
83 2 1.2450627372281580e+00 8.9890568732990062e+00 5.7070071757422083e+00 0 0 0
85 2 2.4618573635513736e+00 1.0978536988781881e+01 6.5175980577126023e+00 0 0 0
86 2 3.8417219146709232e+00 9.0591503443573806e+00 7.2104702433434733e+00 0 0 0
87 2 7.2772707839806783e+00 1.1262296930850614e+01 7.3203432410992209e+00 0 0 0
88 2 6.2717324687195877e+00 9.2140678951953419e+00 3.9336379443980878e+00 0 0 0
89 2 3.8430957721336170e+00 9.0609711231648973e+00 4.7386835556745872e+00 0 0 0
90 2 6.2698687994088855e+00 9.2109143406312484e+00 6.4057060534493431e+00 0 0 0
91 2 4.8858796132836488e+00 1.1105508519917532e+01 5.6679402498911005e+00 0 0 0
92 2 7.2779864729960728e+00 1.1263517057078611e+01 4.8478374428241837e+00 0 0 0
93 2 1.0983357158824992e+01 9.4947963568939358e+00 7.2504036354842469e+00 0 0 0
94 2 9.6400904123860318e+00 1.1418228734378879e+01 4.0258090076244706e+00 0 0 0
95 2 1.0983434159407823e+01 9.4948302690852202e+00 4.7776751908533672e+00 0 0 0
96 2 8.6391907571786017e+00 9.3517955285397818e+00 5.5932946453719232e+00 0 0 0
97 2 9.6397847111132098e+00 1.1417974044199326e+01 6.4985835405649999e+00 0 0 0
98 2 3.5888484293748211e+00 1.3031280860361944e+01 7.3707482041816901e+00 0 0 0
99 2 5.6912167364447869e-03 1.4959558256221975e+01 7.4153355836518022e+00 0 0 0
100 2 2.3631473790428692e+00 1.4991150521797557e+01 4.1012713513830956e+00 0 0 0
101 2 3.5887042322108931e+00 1.3031243096805250e+01 4.8979385428577471e+00 0 0 0
102 2 1.2028909150578542e+00 1.2959047791850047e+01 5.7523404055131833e+00 0 0 0
103 2 5.6817432730411465e-03 1.4959538496928859e+01 4.9425631416809654e+00 0 0 0
104 2 2.3631892676453421e+00 1.4991154905569694e+01 6.5740512638035806e+00 0 0 0
105 2 7.0557009180901593e+00 1.5256287016459810e+01 7.3796322765316082e+00 0 0 0
106 2 5.9660645620841404e+00 1.3171683887308653e+01 4.0659155805939395e+00 0 0 0
107 2 5.9662282676133929e+00 1.3171637476633675e+01 6.5387708461568161e+00 0 0 0
108 2 4.7129343534666015e+00 1.5099519716940510e+01 5.7354925520475346e+00 0 0 0
109 2 7.0556556821131640e+00 1.5256330747066148e+01 4.9068337171367435e+00 0 0 0
58 2 9.3936982626684333e+00 1.5424198874415746e+01 6.5598383764686554e+00 0 0 0
81 2 8.3286107873389916e+00 1.3335786036596982e+01 5.7159292954092544e+00 0 0 0
84 2 1.0675866649664425e+01 1.3498373006537191e+01 4.8952263325674403e+00 0 0 0
110 2 1.0675750130045596e+01 1.3498269417721097e+01 7.3679960215288887e+00 0 0 0
111 2 9.3936354066724252e+00 1.5424095381245888e+01 4.0870188036401638e+00 0 0 0
113 2 1.1757494341536374e+00 1.6966034390168630e+01 8.1372385602407049e-01 0 0 0
114 2 2.3123461732315480e+00 1.8997313783159377e+01 1.6204666469729543e+00 0 0 0
115 2 3.5012858655922332e+00 1.7045719247141790e+01 2.4473057278431418e+00 0 0 0
116 2 1.1757409014073672e+00 1.6966038499110535e+01 3.2864944379668417e+00 0 0 0
172 2 2.2825976688024031e-02 1.8965827680613430e+01 6.6719343644841599e-03 0 0 0
173 2 2.2824222226450367e-02 1.8965883328164463e+01 2.4794375200106220e+00 0 0 0
117 2 5.8163063258234722e+00 1.7190668041347255e+01 1.6113779746114640e+00 0 0 0
118 2 4.5957692352766069e+00 1.9137135104667880e+01 7.7734634769571354e-01 0 0 0
120 2 4.5957561462620422e+00 1.9137215956031458e+01 3.2501322648283759e+00 0 0 0
121 2 6.8830642097288273e+00 1.9301089617484770e+01 2.4315477296382921e+00 0 0 0
123 2 8.1326853075332153e+00 1.7356185350323827e+01 7.9051877003435700e-01 0 0 0
124 2 9.1862090572153896e+00 1.9460002433655902e+01 1.6316356680855097e+00 0 0 0
125 2 1.0455844152636077e+01 1.7519851945521239e+01 2.4541217280341745e+00 0 0 0
126 2 8.1326493971421048e+00 1.7356151771383566e+01 3.2632759923034138e+00 0 0 0
128 2 1.1543744166793832e+00 2.0971046010571392e+01 8.0711890899451488e-01 0 0 0
129 2 2.1559404527417660e+00 2.3065661398991459e+01 1.5374011071437783e+00 0 0 0
130 2 3.3749400950679598e+00 2.1083837543720673e+01 2.3915648713152979e+00 0 0 0
131 2 1.1543254878159341e+00 2.0971188903301332e+01 3.2798509748228994e+00 0 0 0
169 2 1.1726603049232807e-01 2.3047177246826966e+01 7.5955384859794250e-02 0 0 0
170 2 1.1717491588126576e-01 2.3047616518814095e+01 2.5486316462148184e+00 0 0 0
132 2 5.6272923597484823e+00 2.1257599966739818e+01 1.5884957511606144e+00 0 0 0
133 2 4.3258891663447194e+00 2.3204038828943137e+01 7.0384396006907024e-01 0 0 0
134 2 6.5794355703309488e+00 2.3369195396399380e+01 2.3761982031587348e-02 0 0 0
135 2 4.3257443303367848e+00 2.3204544620963510e+01 3.1768321414897787e+00 0 0 0
136 2 6.5795329462584045e+00 2.3368850710168381e+01 2.4965901982727123e+00 0 0 0
137 2 1.0207671596931794e+01 2.1556132057137383e+01 3.6802420820185408e-02 0 0 0
138 2 7.9058290028281606e+00 2.1411722648679866e+01 8.1437411295757800e-01 0 0 0
139 2 8.8740933581209855e+00 2.3500047712339416e+01 1.7442593551893144e+00 0 0 0
140 2 1.0207746237845390e+01 2.1556001127039750e+01 2.5095909373942393e+00 0 0 0
141 2 7.9058867852546229e+00 2.1411620934447757e+01 3.2871846309795170e+00 0 0 0
166 2 1.1186167642617731e+01 2.3639984198363354e+01 9.5995572601414092e-01 0 0 0
167 2 1.1186296644675597e+01 2.3639828629835034e+01 3.4327988682393236e+00 0 0 0
112 2 3.5012877554387938e+00 1.7045678705073168e+01 7.3928442787568098e+00 0 0 0
142 2 2.3123166809610227e+00 1.8997354249020347e+01 4.0932210536140783e+00 0 0 0
143 2 3.5012666262780687e+00 1.7045701020465245e+01 4.9200702521165072e+00 0 0 0
144 2 1.1757371009819049e+00 1.6966012815468275e+01 5.7592636533014971e+00 0 0 0
145 2 2.3123152254166763e+00 1.8997280219475513e+01 6.5659856867266422e+00 0 0 0
174 2 2.2799772136768145e-02 1.8965834870431397e+01 4.9521934791689404e+00 0 0 0
119 2 6.8830722011313359e+00 1.9301107486569194e+01 7.3770864134814529e+00 0 0 0
146 2 5.8162751608693011e+00 1.7190709284469769e+01 4.0841461167889284e+00 0 0 0
147 2 5.8162889752048548e+00 1.7190689733201449e+01 6.5569148282660494e+00 0 0 0
148 2 4.5957352238692613e+00 1.9137207312674903e+01 5.7228801852413742e+00 0 0 0
149 2 6.8830455270427242e+00 1.9301158061584601e+01 4.9043134675840525e+00 0 0 0
122 2 1.0455885182106286e+01 1.7519911140654788e+01 7.3996879817962569e+00 0 0 0
150 2 9.1862187696599023e+00 1.9459954340844959e+01 4.1044163617565763e+00 0 0 0
151 2 1.0455867242076927e+01 1.7519865302715814e+01 4.9268999207478545e+00 0 0 0
152 2 8.1326669942316556e+00 1.7356222939469681e+01 5.7360567150025767e+00 0 0 0
153 2 9.1862293570088678e+00 1.9460014862670416e+01 6.5771932011970682e+00 0 0 0
127 2 3.3749174105469120e+00 2.1083679119673821e+01 7.3370701398460705e+00 0 0 0
154 2 2.1558619684747047e+00 2.3065889588985421e+01 4.0100033691626313e+00 0 0 0
155 2 3.3748853727045738e+00 2.1083889591747926e+01 4.8642903520132235e+00 0 0 0
156 2 1.1542893807333914e+00 2.0971033985517312e+01 5.7525901132322659e+00 0 0 0
157 2 2.1558653118244395e+00 2.3065401067746599e+01 6.4827198805446473e+00 0 0 0
171 2 1.1708439696383488e-01 2.3047328834170425e+01 5.0212582318909291e+00 0 0 0
158 2 5.6272772840736849e+00 2.1257797356742511e+01 4.0612664162998984e+00 0 0 0
159 2 5.6273183311102342e+00 2.1257679662913379e+01 6.5340273021072512e+00 0 0 0
160 2 4.3259009817501930e+00 2.3204374733175939e+01 5.6495780229588801e+00 0 0 0
161 2 6.5796573730670955e+00 2.3369147128873745e+01 4.9694563393684961e+00 0 0 0
162 2 8.8743176411226070e+00 2.3499796375475359e+01 4.2172334538097784e+00 0 0 0
163 2 1.0207802147568810e+01 2.1555926968163288e+01 4.9824157013853574e+00 0 0 0
164 2 7.9058986003971983e+00 2.1411729353180245e+01 5.7599669048127460e+00 0 0 0
165 2 8.8739105791727777e+00 2.3500375172760986e+01 6.6897911192776265e+00 0 0 0
168 2 1.1186146877099867e+01 2.3639948986870671e+01 5.9055533410101733e+00 0 0 0
175 2 2.4395152354097895e+00 2.5164780323468225e+01 3.2553754956533276e-01 0 0 0
176 2 2.4390613530197567e+00 2.5166099391532107e+01 2.7983541931857610e+00 0 0 0
177 2 1.1723113162867360e+00 2.7134972301648180e+01 2.0552705455282205e+00 0 0 0
178 2 3.6286228927798767e+00 2.7170717221412072e+01 1.1627778950546506e+00 0 0 0
181 2 3.6312459724665920e+00 2.7170854714159606e+01 3.6372353174499712e+00 0 0 0
179 2 6.0489858292140477e+00 2.7309863538642656e+01 3.2128225088644358e-01 0 0 0
180 2 5.0181600174516543e+00 2.5261652627287528e+01 1.8529234825118350e+00 0 0 0
182 2 6.0521566071469213e+00 2.7306103266275116e+01 2.7959288718615691e+00 0 0 0
183 2 7.4338641380216792e+00 2.5415256727971027e+01 1.0500401525597016e+00 0 0 0
186 2 7.4348258806545493e+00 2.5414241630645130e+01 3.5234647695531991e+00 0 0 0
184 2 9.7974081927889891e+00 2.5564489858265816e+01 2.3971540454663715e-01 0 0 0
185 2 1.0788077123212165e+01 2.7635321314568500e+01 1.1528791127432154e+00 0 0 0
187 2 9.7978770421064461e+00 2.5564038878128624e+01 2.7126840444150448e+00 0 0 0
188 2 8.4324890536802624e+00 2.7474309063772782e+01 1.9725536574073543e+00 0 0 0
189 2 1.0787597900492910e+01 2.7635715128115613e+01 3.6256424529091631e+00 0 0 0
190 2 1.1712350556009306e+00 3.1127033180394921e+01 2.0721916974512489e+00 0 0 0
191 2 3.5460343141756439e+00 3.1147411989228040e+01 1.2631057365867804e+00 0 0 0
192 2 2.3594335319741013e+00 2.9146075432643290e+01 4.0316243475373642e-01 0 0 0
193 2 2.3654868239641935e+00 2.9139812125968220e+01 2.8803237248994931e+00 0 0 0
216 2 3.5127806086133480e+00 3.1188666084088528e+01 3.7325553547514243e+00 0 0 0
194 2 5.8717080982954934e+00 3.1315410087436103e+01 4.0085671695386893e-01 0 0 0
195 2 5.8549136463886562e+00 3.1318259499748006e+01 2.8736987518726003e+00 0 0 0
196 2 4.7568435918111360e+00 2.9218018562868902e+01 2.0378973350308001e+00 0 0 0
199 2 7.1204008579329470e+00 2.9385068259413593e+01 1.1975240104682379e+00 0 0 0
201 2 7.1172104271047587e+00 2.9388418814399923e+01 3.6702197872824289e+00 0 0 0
197 2 8.1936295715147125e+00 3.1483548232954906e+01 2.0407226963305574e+00 0 0 0
198 2 1.0529869461746078e+01 3.1649228026793107e+01 1.2226763851006346e+00 0 0 0
200 2 9.4733537788115569e+00 2.9555711641759014e+01 3.7280478418239277e-01 0 0 0
202 2 9.4720262995023692e+00 2.9556773475925553e+01 2.8455882484912043e+00 0 0 0
224 2 1.0530401692210466e+01 3.1650096873218171e+01 3.6947732235845958e+00 0 0 0
203 2 1.1746567430858041e+00 2.7133028301237204e+01 7.0016321910321242e+00 0 0 0
204 2 2.4404150648708804e+00 2.5165390776234059e+01 5.2711939483857755e+00 0 0 0
205 2 1.1763472378846176e+00 2.7134596928543715e+01 4.5294167537324670e+00 0 0 0
208 2 3.6290304080295592e+00 2.7173827392135554e+01 6.1086728822721073e+00 0 0 0
206 2 5.0178026545742993e+00 2.5262688585916973e+01 6.7984255935741240e+00 0 0 0
207 2 5.0188290687523631e+00 2.5262129595586206e+01 4.3261019941264882e+00 0 0 0
209 2 6.0483946411552951e+00 2.7311874899721253e+01 5.2672031679805213e+00 0 0 0
211 2 7.4334313501687141e+00 2.5416079644919662e+01 5.9956260548082732e+00 0 0 0
210 2 8.4310948315722385e+00 2.7475684684087501e+01 6.9175952002511476e+00 0 0 0
212 2 9.7974199668678494e+00 2.5564410309089983e+01 5.1854165008585085e+00 0 0 0
213 2 8.4313220235296900e+00 2.7475518453237907e+01 4.4452304053629783e+00 0 0 0
214 2 1.0787483021132978e+01 2.7635744238711432e+01 6.0982865280192380e+00 0 0 0
215 2 1.1364568682441150e+00 3.1123190264817449e+01 4.5324525164010820e+00 0 0 0
217 2 1.1497862577847948e+00 3.1141660647376462e+01 7.0101094101287824e+00 0 0 0
218 2 3.5309699013328255e+00 3.1194816856654892e+01 6.2015614129850984e+00 0 0 0
219 2 2.3625604563180636e+00 2.9152513577444640e+01 5.3534650032089575e+00 0 0 0
220 2 4.7494137698498742e+00 2.9232218046407176e+01 6.9786715717187437e+00 0 0 0
221 2 5.8619701750067108e+00 3.1325007524410147e+01 5.3436340385587870e+00 0 0 0
222 2 4.7476961783737019e+00 2.9235100969518584e+01 4.5075157665589609e+00 0 0 0
227 2 7.1172781416191579e+00 2.9389500152662308e+01 6.1420724613786533e+00 0 0 0
223 2 8.1956443952897207e+00 3.1485619019318143e+01 4.5116988104055284e+00 0 0 0
225 2 8.2005296621900907e+00 3.1482627971093962e+01 6.9851108009943772e+00 0 0 0
226 2 1.0532468226229700e+01 3.1649203271506508e+01 6.1675920933939521e+00 0 0 0
228 2 9.4720125128527641e+00 2.9557144522671205e+01 5.3179943705574884e+00 0 0 0
229 2 1.1588704642077415e+01 1.4416461608390019e+00 2.0687376264049044e+00 0 0 0
230 2 1.3917916105077046e+01 1.6000791003240047e+00 1.2617780948689470e+00 0 0 0
231 2 1.2637549310858677e+01 3.5365036203363691e+00 4.5381589331795374e-01 0 0 0
233 2 1.2637797120016835e+01 3.5362592749399933e+00 2.9263071918015027e+00 0 0 0
232 2 1.4965905343523284e+01 3.6918712180282305e+00 2.1183651099537149e+00 0 0 0
234 2 1.6249078874425987e+01 1.7598259603914794e+00 4.5175096981703217e-01 0 0 0
235 2 1.8582144799930543e+01 1.9233080248225622e+00 2.1091088485728453e+00 0 0 0
236 2 1.7301404824530884e+01 3.8507314939924613e+00 1.3028550717014160e+00 0 0 0
237 2 1.6249551437756654e+01 1.7598665717295352e+00 2.9243881191922632e+00 0 0 0
238 2 2.0917640927747883e+01 2.0902031212717729e+00 1.2865991373508148e+00 0 0 0
239 2 1.9646633650883498e+01 4.0132568839068679e+00 4.8072032589576102e-01 0 0 0
241 2 1.9646693219355132e+01 4.0132769584257018e+00 2.9534842790057909e+00 0 0 0
286 2 2.2155968527559370e+01 1.5444311068538413e-01 2.1068407674028564e+00 0 0 0
242 2 1.3664187605195039e+01 5.6263331589841012e+00 1.3319368319584444e+00 0 0 0
243 2 1.2338337034180332e+01 7.5631939766796563e+00 5.7053006450830812e-01 0 0 0
244 2 1.4663145218582624e+01 7.7091576592770501e+00 2.2351966720492356e+00 0 0 0
245 2 1.2338000334708507e+01 7.5629231940249140e+00 3.0433451031464527e+00 0 0 0
285 2 1.1343220743548159e+01 5.4779051373994072e+00 2.1348429617856453e+00 0 0 0
246 2 1.5994884986826911e+01 5.7784126311796928e+00 5.1999350302985237e-01 0 0 0
247 2 1.8337302740955355e+01 5.9324762471455239e+00 2.1731812801604513e+00 0 0 0
248 2 1.6995279954307975e+01 7.8560909460856188e+00 1.4224130084377455e+00 0 0 0
249 2 1.5994862620055452e+01 5.7783798150467041e+00 2.9927443849377990e+00 0 0 0
240 2 2.2006259572650702e+01 4.1750858618123301e+00 2.1275896658390354e+00 0 0 0
250 2 2.0697734764236063e+01 6.0872949042947804e+00 1.3501666917313115e+00 0 0 0
251 2 1.9338916430319255e+01 7.9999193181416786e+00 6.0736662730187274e-01 0 0 0
253 2 1.9338900872366708e+01 7.9999130255302697e+00 3.0801376017764532e+00 0 0 0
254 2 1.1592525993925189e+01 1.4420050879546316e+00 4.5405173044163627e+00 0 0 0
255 2 1.3919268604275015e+01 1.6001931603890625e+00 3.7341845987228761e+00 0 0 0
257 2 1.1590790640436376e+01 1.4418153750263609e+00 7.0141584483441086e+00 0 0 0
258 2 1.3918779902462791e+01 1.6001443364036148e+00 6.2072487303419805e+00 0 0 0
259 2 1.2638706529488656e+01 3.5367115457976492e+00 5.3990566774275646e+00 0 0 0
256 2 1.4966284827804502e+01 3.6920281982889569e+00 4.5911113205005352e+00 0 0 0
260 2 1.4965857935867300e+01 3.6919693200707768e+00 7.0640116279911238e+00 0 0 0
261 2 1.8582118075271321e+01 1.9233046725642320e+00 4.5819127039764620e+00 0 0 0
262 2 1.7301557418389159e+01 3.8507880706804545e+00 3.7756107348842094e+00 0 0 0
263 2 1.6249426670925203e+01 1.7598513604784327e+00 5.3972574393077561e+00 0 0 0
264 2 1.8581981162522073e+01 1.9232941916633961e+00 7.0547043317173292e+00 0 0 0
265 2 1.7301405051788851e+01 3.8507705276224531e+00 6.2484348934614466e+00 0 0 0
266 2 2.0917637868985441e+01 2.0902027748847098e+00 3.7593817884837044e+00 0 0 0
268 2 2.0917584847798182e+01 2.0901988920909180e+00 6.2321629317991052e+00 0 0 0
269 2 1.9646640185603857e+01 4.0132727531385823e+00 5.4262770807378455e+00 0 0 0
287 2 2.2155951680158250e+01 1.5444070005269309e-01 4.5796198279908076e+00 0 0 0
288 2 2.2155945130066552e+01 1.5444661793750797e-01 7.0523899000337344e+00 0 0 0
252 2 1.1343933333020860e+01 5.4784872959331778e+00 7.0802912862854068e+00 0 0 0
271 2 1.3664157960196787e+01 5.6262639224807884e+00 3.8046537862703675e+00 0 0 0
272 2 1.4663080928655164e+01 7.7091323321478153e+00 4.7079536763228971e+00 0 0 0
273 2 1.3664473565034051e+01 5.6265269370131055e+00 6.2774293824755310e+00 0 0 0
274 2 1.2337872297321621e+01 7.5629092959376800e+00 5.5160798301589473e+00 0 0 0
275 2 1.4663281870947072e+01 7.7092550499922048e+00 7.1807180670117523e+00 0 0 0
282 2 1.1343194686492787e+01 5.4778374353509154e+00 4.6074767291239000e+00 0 0 0
276 2 1.8337355742134200e+01 5.9325137155107157e+00 4.6459505313858136e+00 0 0 0
277 2 1.6995247840293647e+01 7.8560778272400027e+00 3.8951798519343734e+00 0 0 0
278 2 1.5994994191190957e+01 5.7784777830970020e+00 5.4655136674070146e+00 0 0 0
279 2 1.8337316092864278e+01 5.9324911090971799e+00 7.1187349425074569e+00 0 0 0
280 2 1.6995332488641548e+01 7.8561255711592226e+00 6.3679466990616760e+00 0 0 0
267 2 2.2006242001919663e+01 4.1750853649255406e+00 4.6003700798739224e+00 0 0 0
270 2 2.2006237241827403e+01 4.1750792783490436e+00 7.0731395520698843e+00 0 0 0
281 2 2.0697755536027323e+01 6.0873090555602953e+00 3.8229374046416753e+00 0 0 0
283 2 2.0697741863538987e+01 6.0873018352652881e+00 6.2957150667763120e+00 0 0 0
284 2 1.9338935577263474e+01 7.9999320741354705e+00 5.5529068221181106e+00 0 0 0
289 2 1.3316101637937846e+01 9.6414443742547178e+00 1.4918728970727102e+00 0 0 0
290 2 1.1983481673674792e+01 1.1571628860257926e+01 7.3377471148118267e-01 0 0 0
291 2 1.1983646593405807e+01 1.1571747004599144e+01 3.2065643045093224e+00 0 0 0
292 2 1.4315401837003083e+01 1.1723474400245312e+01 2.3951126141247272e+00 0 0 0
293 2 1.5641577951236108e+01 9.7876422552077926e+00 6.8412341925465259e-01 0 0 0
294 2 1.6637548106094638e+01 1.1871935851078742e+01 1.5933755287568154e+00 0 0 0
295 2 1.7960385356435879e+01 9.9292249548922840e+00 2.3572755659201121e+00 0 0 0
296 2 1.5641507821495741e+01 9.7875968593561762e+00 3.1569061969982761e+00 0 0 0
297 2 2.0268896810403309e+01 1.0061513962038122e+01 1.5719821627876913e+00 0 0 0
298 2 1.8948706160230124e+01 1.2014876488973398e+01 8.0210803810388287e-01 0 0 0
299 2 1.8948692821635529e+01 1.2014868834344590e+01 3.2748825503283485e+00 0 0 0
343 2 2.1706208957967007e+01 8.1396916044357273e+00 2.2670332325319236e+00 0 0 0
301 2 1.3013084126413945e+01 1.3656728073649649e+01 1.6077377794551477e+00 0 0 0
302 2 1.1728673798098686e+01 1.5587432343460188e+01 8.0058979654596751e-01 0 0 0
303 2 1.1728673581740123e+01 1.5587417806746554e+01 3.2733463474734270e+00 0 0 0
304 2 1.4061787882607991e+01 1.5746593562673034e+01 2.4644866482962282e+00 0 0 0
305 2 1.5343092586288329e+01 1.3811908996633404e+01 8.0062642597848110e-01 0 0 0
306 2 1.6392642377054429e+01 1.5904395341279908e+01 1.6586595953904835e+00 0 0 0
307 2 1.7665671061846066e+01 1.3964436754736477e+01 2.4729013152336616e+00 0 0 0
308 2 1.5343120063434702e+01 1.3811935564642527e+01 3.2734027797907905e+00 0 0 0
300 2 2.1244662241997322e+01 1.2151108682166180e+01 2.4938512847601260e+00 0 0 0
309 2 1.9978165038647859e+01 1.4113769660471618e+01 1.6747920057797498e+00 0 0 0
310 2 2.2275125650496424e+01 1.4262816609669956e+01 8.6745052750765361e-01 0 0 0
311 2 1.8719807789003880e+01 1.6062420630584583e+01 8.5279784937013625e-01 0 0 0
313 2 2.2275123391719927e+01 1.4262814891213132e+01 3.3402237457667354e+00 0 0 0
314 2 1.8719813412094673e+01 1.6062424843590517e+01 3.3255715443972367e+00 0 0 0
326 2 2.1244667997504077e+01 1.2151111793723331e+01 2.1077490608323500e-02 0 0 0
316 2 1.4315321860505467e+01 1.1723412800050491e+01 7.3406520037684633e+00 0 0 0
317 2 1.3315937192450180e+01 9.6413233088978103e+00 3.9646616673794468e+00 0 0 0
318 2 1.3315892614761603e+01 9.6413086638902818e+00 6.4374138143654065e+00 0 0 0
319 2 1.1983504573928602e+01 1.1571645854178675e+01 5.6793435202079161e+00 0 0 0
320 2 1.4315335234952826e+01 1.1723419682839584e+01 4.8678889882305434e+00 0 0 0
321 2 1.7960414055524122e+01 9.9292417164565556e+00 7.3028160494603727e+00 0 0 0
322 2 1.6637517742603112e+01 1.1871915313137034e+01 4.0661509463549654e+00 0 0 0
323 2 1.7960371364492161e+01 9.9292175926553377e+00 4.8300444706494252e+00 0 0 0
324 2 1.5641482676886186e+01 9.7875818457326318e+00 5.6296697271223639e+00 0 0 0
325 2 1.6637509861003501e+01 1.1871907420966828e+01 6.5389192635313007e+00 0 0 0
327 2 2.0268889300947329e+01 1.0061510502344436e+01 4.0447535346852259e+00 0 0 0
328 2 2.0268908062270455e+01 1.0061520593846490e+01 6.5175253556854580e+00 0 0 0
329 2 1.8948687961083525e+01 1.2014864970626686e+01 5.7476533193832555e+00 0 0 0
344 2 2.1706223112654353e+01 8.1396993981664885e+00 4.7398040275049729e+00 0 0 0
345 2 2.1706216489803694e+01 8.1396948726567633e+00 7.2125794942116350e+00 0 0 0
331 2 1.4061793198726054e+01 1.5746585430511500e+01 7.4100398965520151e+00 0 0 0
332 2 1.3013142705621350e+01 1.3656772341087043e+01 4.0805202289972753e+00 0 0 0
333 2 1.3013089560156580e+01 1.3656729586694368e+01 6.5532948970001863e+00 0 0 0
334 2 1.1728718844022538e+01 1.5587467264564674e+01 5.7461393704539656e+00 0 0 0
335 2 1.4061813073351111e+01 1.5746601763812084e+01 4.9372657760465506e+00 0 0 0
336 2 1.7665657946229054e+01 1.3964423948514955e+01 1.2692936034053304e-04 0 0 1
337 2 1.6392654016601472e+01 1.5904403608865595e+01 4.1314342668189248e+00 0 0 0
338 2 1.7665659653882891e+01 1.3964427014327306e+01 4.9456747624045629e+00 0 0 0
339 2 1.5343095778276822e+01 1.3811909574004616e+01 5.7461766906980962e+00 0 0 0
340 2 1.6392645712145779e+01 1.5904391662585272e+01 6.6042080908768428e+00 0 0 0
312 2 1.8719809631247372e+01 1.6062420223647340e+01 5.7983448529666930e+00 0 0 0
315 2 2.2275122829574723e+01 1.4262814088990792e+01 5.8129961522756561e+00 0 0 0
330 2 2.1244659438112887e+01 1.2151106800706383e+01 4.9666232965843289e+00 0 0 0
341 2 1.9978159904117351e+01 1.4113765872233071e+01 4.1475653423019496e+00 0 0 0
342 2 1.9978158804219877e+01 1.4113764321673248e+01 6.6203372109424512e+00 0 0 0
346 2 1.2784644167574339e+01 1.7679182444534828e+01 1.6488459297517424e+00 0 0 0
347 2 1.1503508957598882e+01 1.9614518619249200e+01 8.3595613712229688e-01 0 0 0
348 2 1.3830244315826810e+01 1.9769465287559889e+01 3.5057521752980721e-02 0 0 0
349 2 1.1503526553944100e+01 1.9614448010277503e+01 3.3087309032139953e+00 0 0 0
350 2 1.3830243153116809e+01 1.9769460673031116e+01 2.5078243618618319e+00 0 0 0
351 2 1.7452427185836410e+01 1.7997947144009238e+01 3.3726927975338321e-02 0 0 0
352 2 1.5117083032057050e+01 1.7837652258029657e+01 8.4269171400525544e-01 0 0 0
353 2 1.6165362122679110e+01 1.9926597800470581e+01 1.6999518438129000e+00 0 0 0
354 2 1.8509681496367534e+01 2.0088144348287969e+01 8.8515756518834787e-01 0 0 0
355 2 1.7452428572271728e+01 1.7997947397077063e+01 2.5064985131564450e+00 0 0 0
356 2 1.5117086635132154e+01 1.7837652595985613e+01 3.3154613388603025e+00 0 0 0
357 2 1.8509685241227260e+01 2.0088142478942640e+01 3.3579310262786275e+00 0 0 0
358 2 1.9789686452446222e+01 1.8161887916929899e+01 1.6917858701038635e+00 0 0 0
359 2 2.2127329770217131e+01 1.8322975852321413e+01 8.6507382052019977e-01 0 0 0
361 2 2.2127331283251351e+01 1.8322976093441966e+01 3.3378469981491574e+00 0 0 0
400 2 2.1039724973680830e+01 1.6220609963087966e+01 3.8935126900288101e-02 0 0 0
402 2 2.1039727634052191e+01 1.6220611692728230e+01 2.5117083436475127e+00 0 0 0
363 2 1.2523943257290389e+01 2.1703950665217917e+01 1.7186869755003569e+00 0 0 0
364 2 1.4851920643895014e+01 2.1854861852262470e+01 9.1619433521897242e-01 0 0 0
366 2 1.3508669293900569e+01 2.3784953285745718e+01 1.6133484520242150e-01 0 0 0