LAMMPS data file via write_data, version 11 Aug 2017, timestep = 1000

2521 atoms
2 atom types

0.0000000000000000e+00 4.9455458018713003e+01 xlo xhi
0.0000000000000000e+00 8.4798445999037000e+01 ylo yhi
0.0000000000000000e+00 6.9940579463440002e+00 zlo zhi

Masses

1 12.0107
2 55.845

Atoms # atomic

1 2 1.0307750901184121e+00 2.2211806359675013e+00 6.8215106915228798e+00 0 0 0
2 2 3.8096020497106370e-01 1.9798192970405160e+00 4.5649878827956325e+00 0 0 0
3 2 2.0547894644756344e+00 1.9551188939894282e+00 2.2745053578945296e+00 0 0 0
4 2 3.6735812412785385e+00 1.9488627086582575e+00 6.9881713129812431e+00 0 0 0
5 2 2.8644713835271305e+00 1.9863240335904802e+00 4.6303325623334040e+00 0 0 0
6 2 1.2302197205855823e+00 3.9997577623466110e+00 3.4448508732494467e+00 0 0 0
7 2 3.7472580304710218e-01 4.0614708475384846e+00 1.1545281349602678e+00 0 0 0
8 2 2.0702507005075970e+00 4.0540049113434860e+00 5.7560255264257645e+00 0 0 0
9 2 3.7039145771515405e+00 3.9849712728940365e+00 3.4439576639433458e+00 0 0 0
10 2 2.8646085138425890e+00 4.0055538584539256e+00 1.1155770493182520e+00 0 0 0
2521 1 2.0623103128249580e+00 9.6253890800854758e-01 5.7378157779344352e-01 0 0 0
11 2 4.5414696185532302e+00 1.9460438519094754e+00 2.3259393598596954e+00 0 0 0
12 2 6.1734849024501761e+00 1.9525299798670728e+00 6.9809009421684562e+00 0 0 0
13 2 5.3494423612809214e+00 1.9487677792319540e+00 4.6588102437203940e+00 0 0 0
14 2 7.0134843206348929e+00 1.9438821420596881e+00 2.3161535606247603e+00 0 0 0
15 2 7.8312342396874355e+00 1.9419047083479266e+00 4.6460096842326424e+00 0 0 0
16 2 4.5265790628201747e+00 3.9722290072136546e+00 5.7873153833551321e+00 0 0 0
17 2 6.1782146452471709e+00 3.9647090039018078e+00 3.4510988298922660e+00 0 0 0
18 2 5.3441290101829910e+00 3.9691113231249453e+00 1.1223476011854507e+00 0 0 0
19 2 7.0037219920340341e+00 3.9646100399467312e+00 5.7798571869607951e+00 0 0 0
20 2 7.8266589196321537e+00 3.9607977337614595e+00 1.1147139934231163e+00 0 0 0
21 2 8.6568875531366825e+00 1.9401266203519991e+00 6.9738935998522136e+00 0 0 0
22 2 9.4861424563809109e+00 1.9339586606235504e+00 2.3098897049467060e+00 0 0 0
23 2 1.1132430585193710e+01 1.9265409704282339e+00 6.9702544681136667e+00 0 0 0
24 2 1.0307478436740103e+01 1.9302495262820702e+00 4.6403312349779950e+00 0 0 0
25 2 1.1958048113767699e+01 1.9213748425502148e+00 2.3071280110574790e+00 0 0 0
26 2 8.6554326745323618e+00 3.9563654574518372e+00 3.4432559688198143e+00 0 0 0
27 2 9.4804661528339977e+00 3.9537150363799807e+00 5.7725942063421147e+00 0 0 0
28 2 1.1130760792175510e+01 3.9453872712674678e+00 3.4387076817620081e+00 0 0 0
29 2 1.0304685900298914e+01 3.9497022715568422e+00 1.1084462156793358e+00 0 0 0
30 2 1.1955249382527555e+01 3.9417412208689728e+00 5.7696710383584620e+00 0 0 0
31 2 1.2269358116189029e+00 6.0370639475035492e+00 6.9489778938922999e+00 0 0 0
32 2 4.0650234656521883e-01 6.0238058663597185e+00 4.6255062637240814e+00 0 0 0
33 2 2.0517602568091489e+00 6.0238684997005443e+00 2.2790439481806968e+00 0 0 0
34 2 3.7071827040176180e+00 6.0099653087481375e+00 6.9269737166390737e+00 0 0 0
35 2 2.8903569254466412e+00 6.0291954200596729e+00 4.5921283602928709e+00 0 0 0
36 2 1.2303580859595802e+00 8.0390237434821383e+00 3.4475347979903668e+00 0 0 0
37 2 4.0316812262100810e-01 8.0432377848110548e+00 1.1298501823115972e+00 0 0 0
38 2 2.0586239938313540e+00 8.0369802447782970e+00 5.7645483756547531e+00 0 0 0
39 2 3.7118344355007675e+00 8.0295197675525696e+00 3.4096020838383363e+00 0 0 0
40 2 2.8832693644837688e+00 8.0297959705584212e+00 1.0910335586601438e+00 0 0 0
41 2 4.5306747452267349e+00 6.0013552740631688e+00 2.2611813063605748e+00 0 0 0
42 2 6.1807310716070836e+00 5.9862590370578310e+00 6.9188195916626505e+00 0 0 0
43 2 5.3587115360932129e+00 5.9908964126262694e+00 4.5902242949408185e+00 0 0 0
44 2 7.0056491510843681e+00 5.9822301569877920e+00 2.2517102364736150e+00 0 0 0
45 2 7.8327897353468252e+00 5.9789549347344044e+00 4.5786447445514780e+00 0 0 0
46 2 4.5364081604723347e+00 8.0185093612660694e+00 5.7342318361355762e+00 0 0 0
47 2 6.1858778381968422e+00 8.0060254170461818e+00 3.3899331680911353e+00 0 0 0
48 2 5.3603738774985583e+00 8.0123224626589451e+00 1.0647220029106541e+00 0 0 0
49 2 7.0105558467756524e+00 8.0009177983124964e+00 5.7155004732256680e+00 0 0 0
50 2 7.8350135947457735e+00 7.9971866788502242e+00 1.0474484901029453e+00 0 0 0
51 2 8.6567135141901428e+00 5.9754206227367774e+00 6.9070037350634754e+00 0 0 0
52 2 9.4816975632266605e+00 5.9719736793812714e+00 2.2413334349885434e+00 0 0 0
53 2 1.1131714173649737e+01 5.9651825168093291e+00 6.9005134235015886e+00 0 0 0
54 2 1.0307487543446085e+01 5.9686444914313723e+00 4.5703458001119470e+00 0 0 0
55 2 1.1956257804631329e+01 5.9616509066540893e+00 2.2372364126971016e+00 0 0 0
56 2 8.6602752426836815e+00 7.9940932104152216e+00 3.3739330025328265e+00 0 0 0
57 2 9.4849727472541900e+00 7.9907643470713756e+00 5.7015494077307896e+00 0 0 0
58 2 1.1134151770627859e+01 7.9850609616754573e+00 3.3654244820591006e+00 0 0 0
59 2 1.0309427166905390e+01 7.9878372296032447e+00 1.0359990897934914e+00 0 0 0
60 2 1.1958492644519747e+01 7.9821091853442709e+00 5.6960406315605221e+00 0 0 0
61 2 1.2321053628595517e+00 1.0048410664289159e+01 6.9348188582734140e+00 0 0 0
62 2 4.0494018500932444e-01 1.0049629131382224e+01 4.6219504686176007e+00 0 0 0
63 2 2.0585102633207493e+00 1.0045326246431294e+01 2.2550030771964868e+00 0 0 0
64 2 3.7108726483491843e+00 1.0036779880119386e+01 6.8871488015566422e+00 0 0 0
65 2 2.8848461764477995e+00 1.0042596694962056e+01 4.5703685552998969e+00 0 0 0
66 2 1.2319469913905685e+00 1.2056487484726061e+01 3.4248840415654347e+00 0 0 0
67 2 4.0581129362638807e-01 1.2058348419704766e+01 1.1168780914335832e+00 0 0 0
68 2 2.0580731826643235e+00 1.2054330380613591e+01 5.7339413912978747e+00 0 0 0
69 2 3.7100151177311615e+00 1.2047727188478214e+01 3.3618821865423829e+00 0 0 0
70 2 2.8841421221931740e+00 1.2051259015561717e+01 1.0501553484611066e+00 0 0 0
71 2 4.5373076714098692e+00 1.0033891784822316e+01 2.2104891627113341e+00 0 0 0
72 2 6.1872960529171390e+00 1.0022737913715426e+01 6.8526113181452848e+00 0 0 0
73 2 5.3623169789045528e+00 1.0027674493039433e+01 4.5310579817032401e+00 0 0 0
74 2 7.0122302687594953e+00 1.0018607901581094e+01 2.1816065418750457e+00 0 0 0
75 2 7.8368087904817916e+00 1.0014986933574097e+01 4.5058420387108722e+00 0 0 0
76 2 4.5354775815435424e+00 1.2043553999679839e+01 5.6758085712767175e+00 0 0 0
77 2 6.1856026102293802e+00 1.2037168659753801e+01 3.3159323435299628e+00 0 0 0
78 2 5.3609740880373922e+00 1.2040559015175477e+01 9.9741583115323373e-01 0 0 0
79 2 7.0100660318520704e+00 1.2034254275016972e+01 5.6362504414216001e+00 0 0 0
80 2 7.8345143099062282e+00 1.2031729999938708e+01 9.6428318140118752e-01 0 0 0
81 2 8.6614002693242060e+00 1.0011955616060028e+01 6.8311048182221370e+00 0 0 0
82 2 9.4860151984164265e+00 1.0009538077731719e+01 2.1634516642564097e+00 0 0 0
83 2 1.1134709923556422e+01 1.0004941548430160e+01 6.8201147370300212e+00 0 0 0
84 2 1.0310398305675642e+01 1.0007152053490568e+01 4.4911734163905246e+00 0 0 0
85 2 1.1958975200752633e+01 1.0002913566890992e+01 2.1562795786964393e+00 0 0 0
86 2 8.6586743466046947e+00 1.2029579982564444e+01 3.2880896457326108e+00 0 0 0
87 2 9.4828188196194372e+00 1.2027766504095050e+01 5.6134154853989813e+00 0 0 0
88 2 1.1131115985520882e+01 1.2024928338420962e+01 3.2745047649235408e+00 0 0 0
89 2 1.0307027898094168e+01 1.2026287798085727e+01 9.4615563967148708e-01 0 0 0
90 2 1.1955206643176904e+01 1.2023669759139707e+01 5.6043408744598819e+00 0 0 0
91 2 1.2305850841985353e+00 1.4063491725370024e+01 6.9036581475291854e+00 0 0 0
92 2 4.0543371757484004e-01 1.4065027972820923e+01 4.6024552417914544e+00 0 0 0
93 2 2.0554466484935761e+00 1.4062243549014703e+01 2.2118941505700045e+00 0 0 0
94 2 3.7060917173046248e+00 1.4055591186918994e+01 6.8211924394743582e+00 0 0 0
95 2 2.8811557487551216e+00 1.4058294308897789e+01 4.5149470416862849e+00 0 0 0
96 2 1.2251945450607402e+00 1.6071416024685075e+01 3.3804439981911925e+00 0 0 0
97 2 4.0237340529275317e-01 1.6069330304385613e+01 1.0904552611504794e+00 0 0 0
98 2 2.0502541203187676e+00 1.6064368165897779e+01 5.6703572581289254e+00 0 0 0
99 2 3.6955084896912238e+00 1.6062128672724775e+01 3.2711434294869162e+00 0 0 0
100 2 2.8731604766429282e+00 1.6063103035410077e+01 9.7152581777547120e-01 0 0 0
101 2 4.5304669544091754e+00 1.4053290720113157e+01 2.1363214068219274e+00 0 0 0
102 2 6.1781532714672149e+00 1.4050624539614571e+01 6.7641443877116219e+00 0 0 0
103 2 5.3543788538832766e+00 1.4051839915125795e+01 4.4489700305946673e+00 0 0 0
104 2 7.0016160243918693e+00 1.4049139081787004e+01 2.0879473988289350e+00 0 0 0
105 2 7.8249760646391087e+00 1.4047878867637284e+01 4.4081504292615818e+00 0 0 0
106 2 4.5171193279228987e+00 1.6063849185708492e+01 5.5766905389654360e+00 0 0 0
107 2 6.1596848793633399e+00 1.6064596526400457e+01 3.2040658166889529e+00 0 0 0
108 2 5.3384135702762627e+00 1.6064522727935099e+01 8.9159159975968805e-01 0 0 0
109 2 6.9810730849305553e+00 1.6064677041477701e+01 5.5199180297871484e+00 0 0 0
110 2 7.8026275392838995e+00 1.6064588757236542e+01 8.4471312025637479e-01 0 0 0
111 2 8.6484094564767311e+00 1.4046835694351158e+01 6.7304732067414381e+00 0 0 0
112 2 9.4718729853212906e+00 1.4045943714533889e+01 2.0606909261913242e+00 0 0 0
113 2 1.1119286807478158e+01 1.4044703080263172e+01 6.7145015937434627e+00 0 0 0
114 2 1.0295459115795854e+01 1.4045230145882273e+01 4.3867647722156224e+00 0 0 0
115 2 1.1943265681316815e+01 1.4044235193650886e+01 2.0498340580949743e+00 0 0 0
116 2 8.6245298053577955e+00 1.6064396303263486e+01 3.1661397370171387e+00 0 0 0
117 2 9.4468738955320504e+00 1.6064255881744760e+01 5.4898333070460321e+00 0 0 0
118 2 1.1092919296631669e+01 1.6064042081555105e+01 3.1489053053711427e+00 0 0 0
119 2 1.0269649211817931e+01 1.6064139274447864e+01 8.2145158396756168e-01 0 0 0
120 2 1.1916784449538882e+01 1.6064088343617250e+01 5.4779903973246658e+00 0 0 0
121 2 1.2162856795034993e+00 1.8062192909881205e+01 6.8309602808091601e+00 0 0 0
122 2 3.9120540160477923e-01 1.8077734337828836e+01 4.5655111666578536e+00 0 0 0
123 2 2.0361710400417738e+00 1.8065274691021429e+01 2.1121035012148477e+00 0 0 0
124 2 3.6695223243709667e+00 1.8074286838608678e+01 6.6932138697698988e+00 0 0 0
125 2 2.8534328558354609e+00 1.8065028171277635e+01 4.3980850062273653e+00 0 0 0
126 2 1.1973952870002571e+00 2.0040602378835448e+01 3.2725462326125943e+00 0 0 0
127 2 3.9365339793189014e-01 2.0038992130860851e+01 1.0283902084114138e+00 0 0 0
128 2 1.9929024969845808e+00 2.0053953554433978e+01 5.5146532826584203e+00 0 0 0
129 2 3.5980967330503453e+00 2.0096073497153714e+01 3.0571207415302539e+00 0 0 0
130 2 2.7911854619886447e+00 2.0092275951593400e+01 7.7334717149953480e-01 0 0 0
131 2 4.4852550350539131e+00 1.8078334434212518e+01 1.9977570589443185e+00 0 0 0
132 2 6.1196632889386287e+00 1.8081534890423075e+01 6.6144980875739279e+00 0 0 0
133 2 5.3020698654817116e+00 1.8080046974754580e+01 4.3032158934655005e+00 0 0 0
134 2 6.9379214308403157e+00 1.8082250658278276e+01 1.9362858012823612e+00 0 0 0
135 2 7.7573245168435836e+00 1.8082513749036508e+01 4.2556369349187770e+00 0 0 0
136 2 4.4094165654259072e+00 2.0098155156933444e+01 5.3588307718707311e+00 0 0 0
137 2 6.0391921885226640e+00 2.0100332314876322e+01 2.9965450296157816e+00 0 0 0
138 2 5.2231732454255573e+00 2.0099930077503565e+01 6.7793059389498578e-01 0 0 0
139 2 6.8577348601575014e+00 2.0100346668535916e+01 5.3185852053833127e+00 0 0 0
140 2 7.6774722925614221e+00 2.0100368963701353e+01 6.4908620694920427e-01 0 0 0
141 2 8.5776026760956388e+00 1.8082651495532208e+01 6.5778378552806718e+00 0 0 0
142 2 9.3986764735615616e+00 1.8082611872340628e+01 1.9081941093912735e+00 0 0 0
143 2 1.1043615736667780e+01 1.8082403056519986e+01 6.5621929236127912e+00 0 0 0
144 2 1.0220758702227652e+01 1.8082486531739399e+01 4.2343997039072567e+00 0 0 0
145 2 1.1867259506934509e+01 1.8082317422405112e+01 1.8973502834493503e+00 0 0 0
146 2 8.4981077955397399e+00 2.0100020221265204e+01 2.9751822126415326e+00 0 0 0
147 2 9.3200722570557364e+00 2.0099579847976983e+01 5.3024334773287478e+00 0 0 0
148 2 1.0965880668874627e+01 2.0098658513670067e+01 2.9657547285576014e+00 0 0 0
149 2 1.0142611730810776e+01 2.0099158937512385e+01 6.3670542492292725e-01 0 0 0
150 2 1.1789894145374221e+01 2.0098202891026865e+01 5.2953974547418028e+00 0 0 0
151 2 4.6499062617598542e-02 2.2146562146850343e+01 3.7246523314555899e+00 0 0 0
152 2 1.7289615636438829e+00 2.2098859184186917e+01 1.6134815682494799e+00 0 0 0
153 2 9.1327784063856732e-01 2.2119679525174821e+01 6.2041543436697602e+00 0 0 0
154 2 2.5683976735609875e+00 2.2093020750473503e+01 3.9822303861572155e+00 0 0 0
155 2 3.4152369151297668e+00 2.2100699613708976e+01 6.3305953587405650e+00 0 0 0
156 2 3.8837909670445011e-04 2.4146824490930410e+01 9.7152547779920828e-02 0 0 0
157 2 1.6693319840685319e+00 2.4129444515598649e+01 4.9185278801815775e+00 0 0 0
158 2 8.3710744141339177e-01 2.4140778968847794e+01 2.5113142367757391e+00 0 0 0
159 2 2.4991775608446369e+00 2.4120615873572753e+01 3.1152476165433035e-01 0 0 0
160 2 3.3309995414220004e+00 2.4117736540210792e+01 2.6801920269768429e+00 0 0 0
161 2 4.2426741423279752e+00 2.2105208645324847e+01 1.6786430412455746e+00 0 0 0
162 2 5.0759161406403468e+00 2.2108544442480305e+01 4.0153980413488144e+00 0 0 0
163 2 6.7366056816135780e+00 2.2112010192129897e+01 1.6904760863131736e+00 0 0 0
164 2 5.9097859023148365e+00 2.2111074166273323e+01 6.3504223876521602e+00 0 0 0
165 2 7.5651210950114516e+00 2.2112797739374383e+01 4.0232811708021563e+00 0 0 0
166 2 4.1645147520954673e+00 2.4119846381012614e+01 5.0356195482043260e+00 0 0 0
167 2 4.9955497677889644e+00 2.4121138921471047e+01 3.9064184646681166e-01 0 0 0
168 2 6.6566724972703666e+00 2.4125007296582837e+01 5.0746631781396498e+00 0 0 0
169 2 5.8261081706328897e+00 2.4123083249932957e+01 2.7343972069428402e+00 0 0 0
170 2 7.4853744331185021e+00 2.4125919101548490e+01 4.1874312157500843e-01 0 0 0
171 2 9.2188799164626474e+00 2.2113175634834047e+01 1.6934190240381535e+00 0 0 0
172 2 8.3933292654956944e+00 2.2113232724231427e+01 6.3555945168774892e+00 0 0 0
173 2 1.0044762232302768e+01 2.2113030803786746e+01 4.0245750658190831e+00 0 0 0
174 2 1.1694325499726490e+01 2.2112367873102521e+01 1.6914585787323011e+00 0 0 0
175 2 1.0870123588932703e+01 2.2112758379524603e+01 6.3552854348560990e+00 0 0 0
176 2 9.1406814914096834e+00 2.4127507195933806e+01 5.0889712164160770e+00 0 0 0
177 2 8.3132587052707514e+00 2.4126812737903581e+01 2.7546938264773106e+00 0 0 0
178 2 9.9668072454262830e+00 2.4127755044742003e+01 4.2788234972733491e-01 0 0 0
179 2 1.1616824866870397e+01 2.4128085900172525e+01 5.0896486359713062e+00 0 0 0
180 2 1.0792143387233304e+01 2.4127968262259476e+01 2.7594276554248718e+00 0 0 0
181 2 3.6004515902603828e-03 2.6176631445873880e+01 3.5585762157858785e+00 0 0 0
182 2 1.6536493996948867e+00 2.6161707145716349e+01 1.3327818739844544e+00 0 0 0
183 2 8.2746538961309324e-01 2.6168508866728097e+01 5.9469153934865799e+00 0 0 0
184 2 2.4795970214303047e+00 2.6154107489069990e+01 3.7077248637686488e+00 0 0 0
185 2 3.3047186965957960e+00 2.6148003855685733e+01 6.0749914610244042e+00 0 0 0
242 2 1.2348476267697349e+01 3.2202976941302040e+01 1.6940210200640526e-01 0 0 0
187 2 1.6480163982198774e+00 2.8191373736094913e+01 4.7799041746484727e+00 0 0 0
188 2 8.2463654840783807e-01 2.8197634904101992e+01 2.4119675844625466e+00 0 0 0
189 2 2.4716818133214153e+00 2.8185750262874755e+01 1.4975152343083620e-01 0 0 0
190 2 3.2955088596909423e+00 2.8180033514259456e+01 2.5098756096064454e+00 0 0 0
191 2 4.1314945758124226e+00 2.6144755689816030e+01 1.4397877370359313e+00 0 0 0
192 2 4.9590141793205280e+00 2.6144134232564824e+01 3.7917472919994020e+00 0 0 0
193 2 6.6129991334644647e+00 2.6144042209040219e+01 1.4881066425662179e+00 0 0 0
194 2 5.7858852887680454e+00 2.6143793064690630e+01 6.1389953178327854e+00 0 0 0
195 2 7.4400016420519286e+00 2.6144651281398001e+01 3.8281822101158971e+00 0 0 0
196 2 4.1190658813449774e+00 2.8175153565408063e+01 4.8658291325895808e+00 0 0 0
197 2 4.9432489745190002e+00 2.8171761356142770e+01 2.2306928232832457e-01 0 0 0
198 2 6.5925851714900352e+00 2.8168320424544607e+01 4.9140065064120106e+00 0 0 0
199 2 5.7679664352148068e+00 2.8169767339287127e+01 2.5701888529026746e+00 0 0 0
200 2 7.4174035334443413e+00 2.8167392545350555e+01 2.6074816145230206e-01 0 0 0
201 2 9.0922435445048553e+00 2.6145296000646859e+01 1.5074003543881604e+00 0 0 0
202 2 8.2662797736389120e+00 2.6144958338564919e+01 6.1659142557063751e+00 0 0 0
203 2 9.9177945374153627e+00 2.6145641193584325e+01 3.8410713996619559e+00 0 0 0
204 2 1.1567089516453212e+01 2.6145954522290129e+01 1.5093623358992354e+00 0 0 0
205 2 1.0742684459581742e+01 2.6145798000380676e+01 6.1730825314189168e+00 0 0 0
206 2 9.0670210369483382e+00 2.8166329857572716e+01 4.9351420300540392e+00 0 0 0
207 2 8.2423251762152550e+00 2.8166835427930145e+01 2.5990052065530809e+00 0 0 0
208 2 9.8916337070677383e+00 2.8165924908506550e+01 2.7521994760264462e-01 0 0 0
209 2 1.1540369770735200e+01 2.8165240141660203e+01 4.9381500649389913e+00 0 0 0
210 2 1.0716127097339170e+01 2.8165597961607720e+01 2.6075338323815833e+00 0 0 0
241 2 1.2352354509092711e+01 3.0183891238501886e+01 3.7138604037742340e+00 0 0 0
212 2 1.6459254019724572e+00 3.0219711273446471e+01 1.2501137623678582e+00 0 0 0
213 2 8.2268299100381748e-01 3.0223348072777132e+01 5.8866838042657079e+00 0 0 0
214 2 2.4687736710038131e+00 3.0214644260692559e+01 3.6062093063327478e+00 0 0 0
215 2 3.2916671793613723e+00 3.0209743564949267e+01 5.9599257954548737e+00 0 0 0
240 2 1.0700150251359299e+01 3.2207350016253564e+01 2.5025424483494456e+00 0 0 0
217 2 1.6451724940829293e+00 3.2245322314275874e+01 4.7248023037545019e+00 0 0 0
218 2 8.2218700112667087e-01 3.2248388931828174e+01 2.3742480345253996e+00 0 0 0
219 2 2.4680644810107180e+00 3.2241591944388375e+01 8.0330987693622055e-02 0 0 0
220 2 3.2907600918578197e+00 3.2237191203968685e+01 2.4287687303883252e+00 0 0 0
221 2 4.1146120293043094e+00 3.0205016999234122e+01 1.3170898232316615e+00 0 0 0
226 2 4.1134947693658122e+00 3.2232751081565063e+01 4.7755957885391576e+00 0 0 0
222 2 4.9375564790728701e+00 3.0200735739554027e+01 3.6656176288698377e+00 0 0 0
223 2 6.5843383479718440e+00 3.0194564976589877e+01 1.3600662178413672e+00 0 0 0
224 2 5.7607942010711835e+00 3.0197258484456636e+01 6.0112511302877785e+00 0 0 0
225 2 7.4079933196831043e+00 3.0192324936951689e+01 3.7005200638496478e+00 0 0 0
227 2 4.9362838885133460e+00 3.2228438139626938e+01 1.2662822228807663e-01 0 0 0
228 2 6.5821616471741873e+00 3.2220740865885546e+01 4.8111386758127814e+00 0 0 0
229 2 5.7591242665490574e+00 3.2224378907666768e+01 2.4698656930135026e+00 0 0 0
230 2 7.4054144048093349e+00 3.2217543475262772e+01 1.5642437875436052e-01 0 0 0
232 2 8.2318357146999119e+00 3.0190491943677181e+01 6.0387134150756090e+00 0 0 0
237 2 8.2288237911266915e+00 3.2214656330012104e+01 2.4939623591580347e+00 0 0 0
231 2 9.0558414577376709e+00 3.0188962648409785e+01 1.3808020526709450e+00 0 0 0
233 2 9.8798825522905780e+00 3.0187570707396667e+01 3.7151179548078943e+00 0 0 0
234 2 1.1528168729568234e+01 3.0185090425993749e+01 1.3845426478804417e+00 0 0 0
235 2 1.0703993144169759e+01 3.0186294285342587e+01 6.0476892419737842e+00 0 0 0
236 2 9.0524272917107300e+00 3.2212041145796270e+01 4.8297706184204436e+00 0 0 0
238 2 9.8762180376554447e+00 3.2209637299268643e+01 1.6989157537798219e-01 0 0 0
239 2 1.1524235966461346e+01 3.2205143721300381e+01 4.8337175848386549e+00 0 0 0
372 2 1.1551977237831665e+01 4.8363710935880867e+01 4.5689382592925378e+00 0 0 0
244 2 1.6453322780278758e+00 3.4269590592931095e+01 1.2111532347452205e+00 0 0 0
245 2 8.2227151986161795e-01 3.4272045707543178e+01 5.8599326025210567e+00 0 0 0
246 2 2.4683250916917547e+00 3.4266367254462480e+01 3.5558397663960610e+00 0 0 0
247 2 3.2912752807356829e+00 3.4262632445729921e+01 5.8997403965241588e+00 0 0 0
371 2 9.9056500765051272e+00 5.0388954671496421e+01 3.3730517597492082e+00 0 0 0
249 2 1.6459126184311061e+00 3.6292410720309036e+01 4.6951169467841201e+00 0 0 0
250 2 8.2257612606912189e-01 3.6294495287178790e+01 2.3540949307555206e+00 0 0 0
251 2 2.4691916822648499e+00 3.6289607393320274e+01 4.1725479321356035e-02 0 0 0
252 2 3.2924238065737117e+00 3.6286224115302510e+01 2.3819047598803751e+00 0 0 0
253 2 4.1141457319139878e+00 3.4258496275040585e+01 1.2486669523684462e+00 0 0 0
258 2 4.1156318556921878e+00 3.6282426201639161e+01 4.7214741706022112e+00 0 0 0
254 2 4.9370403183856819e+00 3.4254254274639955e+01 3.5905068748143067e+00 0 0 0
255 2 6.5830411936184676e+00 3.4245948245658830e+01 1.2763000802235371e+00 0 0 0
256 2 5.7600027206725066e+00 3.4250042610412798e+01 5.9310947035687782e+00 0 0 0
257 2 7.4062264876362613e+00 3.4242058627048429e+01 3.6141713002779023e+00 0 0 0
259 2 4.9388198412690762e+00 3.6278320489880315e+01 6.6281601619838995e-02 0 0 0
260 2 6.5853137659138730e+00 3.6269774964945192e+01 4.7414669854474338e+00 0 0 0
261 2 5.7620354952166224e+00 3.6274069932247578e+01 2.4043233734538463e+00 0 0 0
262 2 7.4086720974624063e+00 3.6265499718456304e+01 8.3606328630961027e-02 0 0 0
264 2 8.2295862628095762e+00 3.4238397003792024e+01 5.9506490777785928e+00 0 0 0
269 2 8.2321462100319511e+00 3.6261299573562823e+01 2.4188182379331846e+00 0 0 0
263 2 9.0531063502087612e+00 3.4234917326699474e+01 1.2917192561898785e+00 0 0 0
265 2 9.8768072548628076e+00 3.4231594786513817e+01 3.6255298597659422e+00 0 0 0
266 2 1.1524749743587858e+01 3.4225263808727490e+01 1.2953278075125578e+00 0 0 0
267 2 1.0700693506117059e+01 3.4228394447142840e+01 5.9580689977986481e+00 0 0 0
268 2 9.0557583394327619e+00 3.6257197013967364e+01 4.7530353704978534e+00 0 0 0
270 2 9.8795111287781445e+00 3.6253180414118411e+01 9.2214770024993425e-02 0 0 0
271 2 1.1527479768420690e+01 3.6245356580294541e+01 4.7558207373322308e+00 0 0 0
272 2 1.0703416410084165e+01 3.6249239326577751e+01 2.4244880402870721e+00 0 0 0
373 2 1.2348980989618278e+01 3.4222172168723404e+01 3.6254525287643906e+00 0 0 0
374 2 1.2351696771027845e+01 3.6241507754689842e+01 9.2183139223038571e-02 0 0 0
370 2 9.9030202677453012e+00 4.8371262055079292e+01 6.9048838962916648e+00 0 0 0
274 2 1.6466815875602649e+00 3.8313956425188692e+01 1.1872682011703573e+00 0 0 0
275 2 8.2301376432787143e-01 3.8315804874634871e+01 5.8438703357186377e+00 0 0 0
276 2 2.4703161918245207e+00 3.8311434026256102e+01 3.5245001463035379e+00 0 0 0
277 2 3.2939127036114182e+00 3.8308328634345997e+01 5.8614400205504449e+00 0 0 0
369 2 9.0808599315441150e+00 5.0392037415364200e+01 1.0464221406784471e+00 0 0 0
280 2 1.6475348117810280e+00 4.0334337383031439e+01 4.6748596516989531e+00 0 0 0
281 2 1.6484116879499813e+00 4.2353602978097683e+01 1.1691792286385077e+00 0 0 0
282 2 8.2349635888329920e-01 4.0336028452270163e+01 2.3405672917162166e+00 0 0 0
283 2 8.2398665050006425e-01 4.2355189014578080e+01 5.8318996273064148e+00 0 0 0
284 2 2.4715475976674677e+00 4.0332002025233429e+01 1.4972076307895075e-02 0 0 0
285 2 2.4728154858996905e+00 4.2351396166471396e+01 3.5004773023413289e+00 0 0 0
286 2 3.2955331784241988e+00 4.0329092861640753e+01 2.3489850376808201e+00 0 0 0
287 2 3.2971931473108986e+00 4.2348628603080478e+01 5.8317320777302717e+00 0 0 0
288 2 4.1174820422427114e+00 3.8304746633723944e+01 1.2039527377661845e+00 0 0 0
293 2 4.1194904693612724e+00 4.0325690749353086e+01 4.6828066065691587e+00 0 0 0
289 2 4.9410394887176361e+00 3.8300805224971953e+01 3.5400823421322838e+00 0 0 0
290 2 6.5881792329743343e+00 3.8292217895715901e+01 1.2167216094162565e+00 0 0 0
291 2 5.7645961760078190e+00 3.8296594812481722e+01 5.8757122323364195e+00 0 0 0
292 2 7.4118109711609419e+00 3.8287750016024575e+01 3.5511834954821335e+00 0 0 0
294 2 4.1215429278782949e+00 4.2345368212875371e+01 1.1688807984923428e+00 0 0 0
295 2 4.9434266272695782e+00 4.0321882126289800e+01 2.2341577547793964e-02 0 0 0
296 2 4.9458637522638709e+00 4.2341689549307773e+01 3.5000353250800305e+00 0 0 0
297 2 6.5912742291341733e+00 4.0313389753798937e+01 4.6887123155686661e+00 0 0 0
298 2 6.5944262760265095e+00 4.2333380255813701e+01 1.1681139928926163e+00 0 0 0
299 2 5.7673518600017530e+00 4.0317756397305487e+01 2.3556717130676694e+00 0 0 0
300 2 5.7701568792195008e+00 4.2337668662088809e+01 5.8311335786525031e+00 0 0 0
301 2 7.4152080651383434e+00 4.0308856473850959e+01 2.7379353067835514e-02 0 0 0
302 2 7.4186745540918322e+00 4.2328889423313932e+01 3.4990932033036919e+00 0 0 0
304 2 8.2355063890906575e+00 3.8283242678856155e+01 5.8850126747510956e+00 0 0 0
310 2 8.2391660017761623e+00 4.0304215679470161e+01 2.3597724572426406e+00 0 0 0
303 2 9.0592856206312238e+00 3.8278736535508415e+01 1.2241322477495427e+00 0 0 0
305 2 9.8831626801309227e+00 3.8274254477092917e+01 3.5566541521308843e+00 0 0 0
306 2 1.1531232893954138e+01 3.8265375793778723e+01 1.2257117605943857e+00 0 0 0
307 2 1.0707142819137527e+01 3.8269800530365409e+01 5.8885291582695674e+00 0 0 0
308 2 9.0631566397991126e+00 4.0299511691952205e+01 4.6918263655543493e+00 0 0 0
309 2 9.0671243091835834e+00 4.2319530379260009e+01 1.1668275264364649e+00 0 0 0
311 2 8.2429056326825414e+00 4.2324257403949048e+01 5.8300154894971117e+00 0 0 0
312 2 9.8871901919069298e+00 4.0294777416355366e+01 2.9480692586748982e-02 0 0 0
313 2 9.8913329211801226e+00 4.2314745807951056e+01 3.4976550119762968e+00 0 0 0
314 2 1.1535410902373430e+01 4.0285297198727321e+01 4.6919081995687364e+00 0 0 0
315 2 1.1539730474619461e+01 4.2305103782076394e+01 1.1651720309265929e+00 0 0 0
316 2 1.0711273875007397e+01 4.0290035328277618e+01 2.3608567756117815e+00 0 0 0
317 2 1.0715534215268557e+01 4.2309930726516427e+01 5.8284512504518800e+00 0 0 0
375 2 1.2355436283567412e+01 3.8260977414063582e+01 3.5563351427665237e+00 0 0 0
376 2 1.2359604468692810e+01 4.0280571598713770e+01 2.8590966966342422e-02 0 0 0
368 2 9.0783099643983327e+00 4.8375057445969333e+01 4.5771150871025030e+00 0 0 0
318 2 1.6492835582199095e+00 4.4371752345064948e+01 4.6578713081992609e+00 0 0 0
319 2 1.6501271264265720e+00 4.6388734998007635e+01 1.1523936744478105e+00 0 0 0
320 2 8.2446961699550192e-01 4.4373273714126981e+01 2.3294384215049742e+00 0 0 0
321 2 8.2493242593839600e-01 4.6390217813754084e+01 5.8210250848392908e+00 0 0 0
322 2 2.4740783731458067e+00 4.4369634139120649e+01 6.9863396425183613e+00 0 0 0
323 2 2.4753024988049681e+00 4.6386670587467400e+01 3.4779357121650536e+00 0 0 0
326 2 3.2988473685801076e+00 4.4366970727992140e+01 2.3208113500299445e+00 0 0 0
327 2 3.3004521547367176e+00 4.6384085941096700e+01 5.8036460651332291e+00 0 0 0
324 2 4.1235849044211630e+00 4.4363828187112404e+01 4.6494265822422172e+00 0 0 0
325 2 4.1255625606032682e+00 4.6381046276867458e+01 1.1355258741553045e+00 0 0 0
328 2 4.9482844077835884e+00 4.4360276631192697e+01 6.9781530201175110e+00 0 0 0
329 2 4.9506283998468783e+00 4.6377627497247524e+01 3.4617393655637354e+00 0 0 0
330 2 6.5975540912958204e+00 4.4352234975492060e+01 4.6419729911281671e+00 0 0 0
331 2 6.6005740370409542e+00 4.6369951324005868e+01 1.1211529024642184e+00 0 0 0
332 2 5.7729424199337807e+00 4.4356389230162776e+01 2.3129550849916378e+00 0 0 0
333 2 5.7756370112585786e+00 4.6373900090997083e+01 5.7882838647497534e+00 0 0 0
334 2 7.4221140476240306e+00 4.4347884949652332e+01 6.9711729208875219e+00 0 0 0
335 2 7.4254356826186942e+00 4.6365829673112856e+01 3.4484997637818133e+00 0 0 0
336 2 8.2466208971019235e+00 4.4343390285238129e+01 2.3065169549416442e+00 0 0 0
337 2 8.2502067524839511e+00 4.6361604234386547e+01 5.7763145756575707e+00 0 0 0
338 2 9.0710704142346419e+00 4.4338802287735433e+01 4.6361446571582716e+00 0 0 0
339 2 9.0748770198024324e+00 4.6357316730198157e+01 1.1105751069355347e+00 0 0 0
340 2 9.8954591728677723e+00 4.4334156493338853e+01 6.9660193291548884e+00 0 0 0
341 2 9.8994404907852989e+00 4.6352999523210755e+01 3.4394291681189753e+00 0 0 0
342 2 1.1544049422737666e+01 4.4324784149143802e+01 4.6325317883010202e+00 0 0 0
343 2 1.1548224479467830e+01 4.6344324923783113e+01 1.1047874805038274e+00 0 0 0
344 2 1.0719785756694462e+01 4.4329478607110893e+01 2.3021035456648091e+00 0 0 0
345 2 1.0723890627269187e+01 4.6348666750499355e+01 5.7688449597138334e+00 0 0 0
348 2 1.6509023741585529e+00 4.8404439288708154e+01 4.6404187841323328e+00 0 0 0
349 2 1.6515440107678621e+00 5.0418711749976644e+01 1.1332815256776005e+00 0 0 0
350 2 8.2535699190562950e-01 4.8405913998602941e+01 2.3182575889093431e+00 0 0 0
351 2 8.2570387145994129e-01 5.0420196317331587e+01 5.8089176571317669e+00 0 0 0
352 2 2.4764336125194371e+00 4.8402407286223948e+01 6.9627821147308220e+00 0 0 0
353 2 2.4773388270933245e+00 5.0416684697901061e+01 3.4520583649421548e+00 0 0 0
356 2 3.3019254239062570e+00 4.8399878176417772e+01 2.2913944135563664e+00 0 0 0
357 2 3.3031227469870172e+00 5.0414209064001135e+01 5.7712753424870309e+00 0 0 0
354 2 4.1273818025871982e+00 4.8396937376497604e+01 4.6144425984710260e+00 0 0 0
355 2 4.1288418997558098e+00 5.0411341589713622e+01 1.0970516009785238e+00 0 0 0
358 2 4.9527796090094878e+00 4.8393654463462688e+01 6.9379669939352517e+00 0 0 0
359 2 4.9544673728322888e+00 5.0408293013249796e+01 3.4176207232755562e+00 0 0 0
360 2 6.6033303752459052e+00 4.8386457547107995e+01 4.5926898554969267e+00 0 0 0
361 2 6.6054773904200124e+00 5.0401688781063655e+01 1.0672277054184323e+00 0 0 0
362 2 5.7780944122596649e+00 4.8390152819252158e+01 2.2679936703258483e+00 0 0 0
363 2 5.7800377102402853e+00 5.0404998609570498e+01 5.7389763559891138e+00 0 0 0
364 2 7.4284552503863610e+00 4.8382680922388190e+01 6.9180848588838071e+00 0 0 0
365 2 7.4307662268477248e+00 5.0398393420972752e+01 3.3905550635188844e+00 0 0 0
279 2 1.0730267768881991e+01 5.0385923332618120e+01 5.7008149145859832e+00 0 0 0
346 2 1.0727578026600236e+01 4.8367482782974847e+01 2.2394445003841312e+00 0 0 0