LAMMPS data file via write_data, version 11 Aug 2017, timestep = 1000

1153 atoms
2 atom types

0.0000000000000000e+00 5.5952463570749003e+01 xlo xhi
0.0000000000000000e+00 3.2304169904395003e+01 ylo yhi
0.0000000000000000e+00 7.4183187028070003e+00 zlo zhi

Masses

1 12.0107
2 55.845

Atoms # atomic

2 2 1.0709166860514132e+00 2.0049939496856446e+00 1.8042781992254364e+00 0 0 0
3 2 3.3620543183344105e+00 1.9863949538904528e+00 1.9926803307136529e-01 0 0 0
6 2 2.2325615360384443e+00 4.0491649921061699e+00 1.0191474557233597e+00 0 0 0
8 2 3.4032127377778520e+00 1.9907143428073599e+00 2.6779493972892210e+00 0 0 0
11 2 2.2480470073809826e+00 4.0363263281642316e+00 3.4881891761954678e+00 0 0 0
1153 1 1.6447850669162820e+00 1.0079756135509368e+00 2.1335021519119540e-01 0 0 0
13 2 5.7266657896830058e+00 1.9942686970488566e+00 9.8023246477702397e-01 0 0 0
14 2 4.5665799316811881e+00 4.0050355032744163e+00 1.8460914300307338e+00 0 0 0
15 2 6.9121853982180319e+00 3.9905699909278338e+00 1.5904942277389367e-01 0 0 0
16 2 5.7403789077652609e+00 1.9927718338930791e+00 3.4594042510043863e+00 0 0 0
18 2 6.9101968134243563e+00 3.9925111508162385e+00 2.6308323342324216e+00 0 0 0
19 2 8.0831083839108153e+00 1.9887803701688169e+00 1.7300536899638947e+00 0 0 0
21 2 9.2565175370545472e+00 3.9841686012746367e+00 9.0385600068679739e-01 0 0 0
22 2 1.0441158863021707e+01 1.9965811181513802e+00 2.4389408362574430e+00 0 0 0
24 2 9.2556169094855036e+00 3.9831334559458780e+00 3.3765913912734655e+00 0 0 0
25 2 1.1029293449820841e+00 6.0673898699039315e+00 1.9027881051481006e+00 0 0 0
26 2 3.4442496263087321e+00 6.0456975066446894e+00 2.4129864215853963e-01 0 0 0
27 2 3.4423505780337527e+00 6.0435953440552099e+00 2.7124892436736316e+00 0 0 0
43 2 2.3198231545619472e+00 8.0708985044418391e+00 1.1250799330387127e+00 0 0 0
44 2 2.3208097842299114e+00 8.0712699405219102e+00 3.5969487268277875e+00 0 0 0
28 2 5.7709716928754524e+00 6.0112144521398783e+00 1.0595101526106891e+00 0 0 0
29 2 5.7724857070480144e+00 6.0160864925204276e+00 3.5307268016023254e+00 0 0 0
45 2 4.6544688383256343e+00 8.0471403302550026e+00 1.9485386253719965e+00 0 0 0
46 2 6.9831566769628406e+00 8.0179315217407279e+00 3.0714467729816392e-01 0 0 0
47 2 6.9834202180978746e+00 8.0200164725050840e+00 2.7793209294866523e+00 0 0 0
30 2 8.1021443452269271e+00 5.9926864889348570e+00 1.8499607605459121e+00 0 0 0
31 2 1.0435298621653502e+01 5.9824453083155040e+00 1.2783035789200228e-01 0 0 0
32 2 1.0434761454298730e+01 5.9821296922496234e+00 2.6006702747694606e+00 0 0 0
48 2 9.3104697359263540e+00 7.9971511166290989e+00 1.1286912738618258e+00 0 0 0
49 2 9.3101855331215795e+00 7.9966661838092126e+00 3.6016017219264596e+00 0 0 0
33 2 1.0565443219044925e+00 2.0286411983221364e+00 4.2511649361070907e+00 0 0 0
35 2 9.1724007714731415e-01 2.2721789432240915e+00 6.5958319032039388e+00 0 0 0
36 2 3.3843452579137567e+00 2.0207164860789426e+00 5.1397441290373562e+00 0 0 0
39 2 2.2680970392683721e+00 4.0926195873454407e+00 5.9540336654710240e+00 0 0 0
37 2 6.9126165564145383e+00 3.9874925475968110e+00 5.1057189483822842e+00 0 0 0
40 2 4.5724834948466366e+00 4.0010697710016565e+00 6.7982826761361013e+00 0 0 0
41 2 5.7259759673184742e+00 1.9864203710175690e+00 5.9324288351407066e+00 0 0 0
42 2 4.5782562202313750e+00 4.0145428788449280e+00 4.3193996887319601e+00 0 0 0
9 2 9.2568450187978186e+00 3.9827376638586327e+00 5.8496189233029918e+00 0 0 0
12 2 1.0442245506376960e+01 1.9957045970637481e+00 4.9123800126795043e+00 0 0 0
17 2 8.0819606708386864e+00 1.9860746609884254e+00 6.6764890953326876e+00 0 0 0
20 2 8.0866866944054969e+00 1.9847601526053871e+00 4.2053127562891692e+00 0 0 0
23 2 1.0440522013749449e+01 1.9965951462439631e+00 7.3845693456280479e+00 0 0 0
4 2 1.1123028957046794e+00 6.0639339341522520e+00 4.3721563183062644e+00 0 0 0
34 2 3.4541016070179449e+00 6.0612203122117929e+00 5.1813097755509707e+00 0 0 0
38 2 1.1057520296444598e+00 6.0804802635779378e+00 6.8459497610142837e+00 0 0 0
50 2 2.3218409839978831e+00 8.0758180365331516e+00 6.0698333559852582e+00 0 0 0
10 2 5.7735328195514004e+00 6.0104903634307885e+00 6.0060051478430481e+00 0 0 0
51 2 4.6578513885903634e+00 8.0538690496901033e+00 4.4196766222861692e+00 0 0 0
52 2 4.6559847016550391e+00 8.0480687996648399e+00 6.8944498624672734e+00 0 0 0
53 2 6.9835216870811738e+00 8.0183141911367191e+00 5.2528163258664557e+00 0 0 0
1 2 1.0434821061701930e+01 5.9820430411420347e+00 5.0733379624545636e+00 0 0 0
5 2 8.1030285356487095e+00 5.9915916456169267e+00 6.7957116693784014e+00 0 0 0
7 2 8.1018711262043901e+00 5.9911254410462167e+00 4.3230581350567929e+00 0 0 0
54 2 9.3104788226862247e+00 7.9967962786331528e+00 6.0742739062277575e+00 0 0 0
212 2 2.2224239173254348e+00 1.2386842850695245e-02 6.0422587157902283e+00 0 1 0
56 2 1.1991708541459343e+00 1.0095656115960608e+01 2.0015680160463503e+00 0 0 0
57 2 3.5361738489390175e+00 1.0077299115368485e+01 3.5741035213565514e-01 0 0 0
59 2 7.0326081295488535e-02 1.2119927784501707e+01 3.9430786425556219e-01 0 0 0
60 2 2.4063632597845670e+00 1.2105653808695948e+01 1.2194371227367620e+00 0 0 0
62 2 3.5362278237709388e+00 1.0077548209848372e+01 2.8298155554151774e+00 0 0 0
64 2 7.0139954477375283e-02 1.2119173685974847e+01 2.8671728114777997e+00 0 0 0
65 2 2.4062651321422157e+00 1.2105680639276388e+01 3.6921069687482864e+00 0 0 0
67 2 5.8706728423561056e+00 1.0053738400573637e+01 1.2009449838259725e+00 0 0 0
69 2 4.7405307979329665e+00 1.2088933701935119e+01 2.0624057277101819e+00 0 0 0
70 2 7.0709325416168438e+00 1.2067060676005353e+01 4.5752839985651711e-01 0 0 0
71 2 5.8716957360843844e+00 1.0056241642011708e+01 3.6731299125800749e+00 0 0 0
73 2 7.0713563382222588e+00 1.2067907745976852e+01 2.9300875023020332e+00 0 0 0
74 2 8.2036001250911479e+00 1.0027505918167469e+01 2.0643121776009163e+00 0 0 0
75 2 1.0537852579390137e+01 1.0006011404017077e+01 4.8126785478329509e-01 0 0 0
77 2 9.3964359715454133e+00 1.2045880110286150e+01 1.3606773810895230e+00 0 0 0
78 2 1.0537788864408256e+01 1.0005829344361178e+01 2.9540998051397889e+00 0 0 0
80 2 1.2636521567948735e+00 1.4131351871559804e+01 2.0666701783111145e+00 0 0 0
81 2 3.5971018415642670e+00 1.4122040862543951e+01 4.2966941513325679e-01 0 0 0
96 2 8.2454706655216263e+00 1.4092623025542323e+01 7.1305268007778171e+00 0 0 0
83 2 2.4410809326534464e+00 1.6150106393786487e+01 1.2563683528979797e+00 0 0 0
84 2 3.5971072175296448e+00 1.4122017865799782e+01 2.9023995514855265e+00 0 0 0
85 2 1.0650828827278845e-01 1.6151972122153456e+01 2.9025934658398680e+00 0 0 0
87 2 5.9257635754164157e+00 1.4109050433075231e+01 1.2895549910532618e+00 0 0 0
88 2 4.7712035006678342e+00 1.6146757079097124e+01 2.1042802613662430e+00 0 0 0
89 2 7.0927009962736909e+00 1.6140528264876146e+01 5.1024328015839238e-01 0 0 0
90 2 7.0927295473310155e+00 1.6140640342534368e+01 2.9830021111946641e+00 0 0 0
91 2 8.2456275458481105e+00 1.4092915902682002e+01 2.1849015291044442e+00 0 0 0
92 2 1.0551785136635921e+01 1.4085214594157019e+01 6.5865503414677129e-01 0 0 0
93 2 9.3990156960209319e+00 1.6132602524384840e+01 1.4367967792541299e+00 0 0 0
94 2 1.0551813783771413e+01 1.4085169367936087e+01 3.1314486249420259e+00 0 0 0
95 2 1.1992933580294964e+00 1.0095526695036808e+01 4.4740322775390249e+00 0 0 0
97 2 1.1996089165343411e+00 1.0097448835545114e+01 6.9468384979385149e+00 0 0 0
98 2 3.5364784833134038e+00 1.0079509102612979e+01 5.3025892050235548e+00 0 0 0
100 2 7.0207921855550887e-02 1.2119155588243828e+01 5.3397986298057081e+00 0 0 0
101 2 2.4063238605542412e+00 1.2106505397326456e+01 6.1648929314237133e+00 0 0 0
103 2 4.7405768261128935e+00 1.2089742054631804e+01 4.5351613166692699e+00 0 0 0
105 2 5.8710416190074683e+00 1.0054426975598465e+01 6.1465734607999876e+00 0 0 0
107 2 4.7404042059768692e+00 1.2088950529165302e+01 7.0080991930911862e+00 0 0 0
108 2 7.0711020519908629e+00 1.2067372047201461e+01 5.4030886396177609e+00 0 0 0
109 2 8.2035544223814902e+00 1.0027048025980829e+01 4.5373211615729643e+00 0 0 0
110 2 9.3964617892048405e+00 1.2045744839723961e+01 3.8335283125584376e+00 0 0 0
111 2 8.2033746596568999e+00 1.0026801412135727e+01 7.0100735770521405e+00 0 0 0
112 2 1.0537849463342649e+01 1.0005866960694973e+01 5.4268389756762669e+00 0 0 0
114 2 9.3963570653258355e+00 1.2045632773329752e+01 6.3063066497207645e+00 0 0 0
86 2 2.4410755596657814e+00 1.6150144939671375e+01 3.7291278657314626e+00 0 0 0
99 2 2.4410774135774180e+00 1.6150313318116890e+01 6.2018963017406792e+00 0 0 0
102 2 1.0649455698340562e-01 1.6152052451843776e+01 5.3753513789268581e+00 0 0 0
104 2 3.5970990814647772e+00 1.4122367960642466e+01 5.3751710922684319e+00 0 0 0
106 2 1.2636394620931481e+00 1.4131745835877597e+01 7.0121863709550016e+00 0 0 0
113 2 1.2636056764019044e+00 1.4131399549014981e+01 4.5393980465130026e+00 0 0 0
66 2 7.0926931747848423e+00 1.6140513487774125e+01 5.4558007225880711e+00 0 0 0
68 2 4.7712001055687061e+00 1.6146746794802947e+01 7.0498338485049743e+00 0 0 0
72 2 5.9257171608659700e+00 1.4109063544518872e+01 6.2351530998308800e+00 0 0 0
76 2 4.7712069931732515e+00 1.6146900548841867e+01 4.5770434463071004e+00 0 0 0
79 2 5.9258129847168872e+00 1.4109340170603659e+01 3.7623101854298504e+00 0 0 0
55 2 9.3989584123059089e+00 1.6132493550747999e+01 6.3823783584478804e+00 0 0 0
58 2 9.3990145783595054e+00 1.6132512796948440e+01 3.9095878474854371e+00 0 0 0
61 2 1.0551767108420869e+01 1.4085127021507700e+01 5.6042342361470663e+00 0 0 0
63 2 8.2455582337105664e+00 1.4092740959840494e+01 4.6577501631181581e+00 0 0 0
115 2 1.2705242806452035e+00 1.8171106756788390e+01 2.0733719595793314e+00 0 0 0
116 2 3.6040952163164106e+00 1.8175819243114130e+01 4.3683069218690823e-01 0 0 0
117 2 3.6040965427464937e+00 1.8175911994176428e+01 2.9096163508867878e+00 0 0 0
122 2 8.4283410056708918e-02 2.0185779051377803e+01 4.0760610217906801e-01 0 0 0
128 2 8.4278012341561126e-02 2.0185364903436589e+01 2.8804247205211770e+00 0 0 0
118 2 5.9320500323498848e+00 1.8180337853960168e+01 1.2967032749564971e+00 0 0 0
119 2 8.2481379856035648e+00 1.8182597193774757e+01 2.1948425775572282e+00 0 0 0
120 2 1.0546082200159921e+01 1.8176432252898739e+01 6.7787987582870257e-01 0 0 0
121 2 1.0546150058309046e+01 1.8176301960888530e+01 3.1506164741959446e+00 0 0 0
123 2 1.2212291597481941e+00 2.2207689942924166e+01 2.0265977706877414e+00 0 0 0
124 2 3.5599734003142163e+00 2.2222121278401136e+01 3.8493020679412532e-01 0 0 0
125 2 2.4209358849410809e+00 2.0195422090278544e+01 1.2351980365973079e+00 0 0 0
126 2 1.0198133330742190e-02 2.4218842250383744e+01 3.3926559476980667e-01 0 0 0
129 2 3.5600211516438391e+00 2.2222815943916306e+01 2.8577992855645555e+00 0 0 0
130 2 2.4209614258080450e+00 2.0195719962381926e+01 3.7080055397216301e+00 0 0 0
131 2 9.6513468976090963e-03 2.4216313644980367e+01 2.8124335575773034e+00 0 0 0
133 2 4.7557098673436276e+00 2.0207268136752941e+01 2.0786951173342536e+00 0 0 0
134 2 5.8982650005671102e+00 2.2240774453785431e+01 1.2289796186722080e+00 0 0 0
135 2 7.0850585879025409e+00 2.0220354406909411e+01 4.7456620514308107e-01 0 0 0
138 2 5.8985124923626975e+00 2.2240927688437750e+01 3.7015384769491706e+00 0 0 0
139 2 7.0851278793113641e+00 2.0220436017276164e+01 2.9472663051926187e+00 0 0 0
141 2 8.2341120645269683e+00 2.2261208421506151e+01 2.0966355969137860e+00 0 0 0
142 2 1.0560877068684915e+01 2.2269828264811689e+01 5.4287820391481534e-01 0 0 0
143 2 9.4019853153743345e+00 2.0228349128996523e+01 1.3876998175825079e+00 0 0 0
145 2 1.0560843131986635e+01 2.2269713995609234e+01 3.0155549812678393e+00 0 0 0
147 2 1.2705237903806079e+00 1.8171245524745263e+01 4.5461495659699294e+00 0 0 0
148 2 1.2705243224410587e+00 1.8171340627303334e+01 7.0189001826995776e+00 0 0 0
149 2 3.6040950044386104e+00 1.8176025151617036e+01 5.3823691857198543e+00 0 0 0
156 2 8.4270699251317444e-02 2.0185705377587940e+01 5.3532096588011910e+00 0 0 0
150 2 5.9320670276906418e+00 1.8180419243711679e+01 3.7694564582150178e+00 0 0 0
151 2 5.9320584492690003e+00 1.8180272321768914e+01 6.2422340236373577e+00 0 0 0
152 2 8.2481680548304848e+00 1.8182446220753675e+01 4.6676084446393640e+00 0 0 0
153 2 8.2481121336861971e+00 1.8182536971342834e+01 7.1404156438456257e+00 0 0 0
154 2 1.0546131470820294e+01 1.8176300757519524e+01 5.6234190412245590e+00 0 0 0
155 2 1.2212846728677937e+00 2.2208467577847731e+01 4.4994128612371140e+00 0 0 0
157 2 1.2212455774608590e+00 2.2208679883281551e+01 6.9720546857524095e+00 0 0 0
158 2 3.5601116584433381e+00 2.2223041587204186e+01 5.3304197283667056e+00 0 0 0
159 2 2.4209417635173605e+00 2.0195860174621558e+01 6.1807217141577100e+00 0 0 0
160 2 9.9373690898931794e-03 2.4218242703558239e+01 5.2852409676734320e+00 0 0 0
144 2 7.0852236204963095e+00 2.0220079281347285e+01 5.4200056362914673e+00 0 0 0
146 2 5.8986809219316045e+00 2.2239955373317841e+01 6.1742532324253379e+00 0 0 0
161 2 4.7557183707393378e+00 2.0207041397174383e+01 7.0241937701187709e+00 0 0 0
162 2 4.7557541313012255e+00 2.0207392622839752e+01 4.5514141501772274e+00 0 0 0
127 2 9.4021566912775096e+00 2.0228075499194372e+01 6.3332091924427703e+00 0 0 0
132 2 1.0561062119136391e+01 2.2269559401570181e+01 5.4883314460982175e+00 0 0 0
136 2 8.2345160054731341e+00 2.2260514615458593e+01 7.0421098067135821e+00 0 0 0
137 2 9.4022007412454087e+00 2.0227983267341568e+01 3.8603493707745478e+00 0 0 0
140 2 8.2347397624697418e+00 2.2260138670430244e+01 4.5690586739933146e+00 0 0 0
82 2 1.0650885078853328e-01 1.6152198052007897e+01 4.2980595177347380e-01 0 0 0
163 2 1.1327710455961986e+00 2.6235496958570632e+01 1.9490085993228825e+00 0 0 0
164 2 3.4719624545613050e+00 2.6248404537787742e+01 2.8627665776164596e-01 0 0 0
165 2 3.4697760453084423e+00 2.6255168125371629e+01 2.7603734758895122e+00 0 0 0
217 2 2.3484257168884994e+00 2.4230090059150175e+01 1.1634914239815819e+00 0 0 0
219 2 2.3485982855297141e+00 2.4231982089699596e+01 3.6363540474823473e+00 0 0 0
166 2 5.8073894993429533e+00 2.6271467432775360e+01 1.0858884740256294e+00 0 0 0
167 2 5.8053234466137313e+00 2.6275669738885011e+01 3.5586841741809532e+00 0 0 0
220 2 4.6879805144356785e+00 2.4249557961499672e+01 1.9875491383288093e+00 0 0 0
221 2 7.0291687349903782e+00 2.4270536007282097e+01 3.4268621909145092e-01 0 0 0
222 2 7.0282561596033828e+00 2.4272276625003052e+01 2.8155582808633568e+00 0 0 0
168 2 8.1386887355059230e+00 2.6295282682268539e+01 1.8673220147387615e+00 0 0 0
169 2 1.0470170279237539e+01 2.6306432852074625e+01 1.1865493617439732e-01 0 0 0
170 2 1.0469673651996681e+01 2.6306515616673487e+01 2.5914742898961292e+00 0 0 0
223 2 9.3699148672665160e+00 2.4294231797940455e+01 1.1818578318039736e+00 0 0 0
226 2 9.3698860483313915e+00 2.4293809432155260e+01 3.6543539043446542e+00 0 0 0
172 2 1.0488040746141771e+00 3.0222346770277149e+01 1.9204014445094537e+00 0 0 0
173 2 3.4446192666813995e+00 3.0222062876022761e+01 2.0975735719148264e-01 0 0 0
174 2 2.2667886107057114e+00 2.8245494355069045e+01 1.0864227071270633e+00 0 0 0
176 2 3.4211393280457121e+00 3.0267012858433091e+01 2.7120288257058460e+00 0 0 0
177 2 2.2610571878832944e+00 2.8262011484413996e+01 3.5604433136696474e+00 0 0 0
205 2 2.3759475670512900e+00 3.2051381805635799e+01 1.2512757914095007e+00 0 0 0
206 2 2.2366070128807847e+00 3.2294474330380744e+01 3.5958951972223030e+00 0 0 0
178 2 4.6056137768934153e+00 2.8271413456108586e+01 1.8755716809762026e+00 0 0 0
179 2 5.7677718173878922e+00 3.0281851195313919e+01 1.0007580105784313e+00 0 0 0
180 2 6.9463251585629804e+00 2.8289463440309184e+01 1.7164680318677916e-01 0 0 0
181 2 5.7583534770308509e+00 3.0295103275225586e+01 3.4744854581539437e+00 0 0 0
182 2 6.9422713042130058e+00 2.8294684014470270e+01 2.6455217327916016e+00 0 0 0
207 2 4.6349763349550193e+00 3.2289520993782610e+01 1.8717730787926057e+00 0 0 0
209 2 6.9429487033795763e+00 3.2294790209249001e+01 2.6068737843197098e+00 0 0 0
213 2 6.9249463951158212e+00 3.2293373971289121e+01 1.2825933168195211e-01 0 0 0
183 2 8.1089872476013074e+00 3.0298225358472305e+01 1.7355582335291642e+00 0 0 0
184 2 9.2873310938034521e+00 2.8304996869034124e+01 8.9585357607028193e-01 0 0 0
185 2 1.0461751239939900e+01 3.0301759544061113e+01 2.4279675092311002e+00 0 0 0
186 2 9.2860226095374596e+00 2.8305310779319935e+01 3.3685862331805843e+00 0 0 0
210 2 9.2775351415566085e+00 3.2298118368417121e+01 8.4113547072950623e-01 0 0 0
211 2 9.2831739790363610e+00 3.2296813537803885e+01 3.3159409062229557e+00 0 0 0
187 2 1.1336004848642638e+00 2.6240162630415742e+01 4.4218964800934986e+00 0 0 0
188 2 1.1349337467420533e+00 2.6241270390513701e+01 6.8936678912156237e+00 0 0 0
189 2 3.4718633857369281e+00 2.6254632197482067e+01 5.2313738675099266e+00 0 0 0
227 2 2.3488011887643054e+00 2.4232309500695074e+01 6.1087796794069957e+00 0 0 0
190 2 5.8100268508373594e+00 2.6266457488207308e+01 6.0288266630583598e+00 0 0 0
224 2 7.0299552208503266e+00 2.4269133290143607e+01 5.2873602124533319e+00 0 0 0
225 2 4.6889261283913424e+00 2.4247137180244664e+01 6.9324340416558510e+00 0 0 0
228 2 4.6887169160065501e+00 2.4249704924285904e+01 4.4596649843483833e+00 0 0 0
191 2 8.1387006842742675e+00 2.6294004787723118e+01 4.3393554061280462e+00 0 0 0
192 2 8.1400352753306908e+00 2.6293242431262019e+01 6.8122959728960915e+00 0 0 0
193 2 1.0469646336116707e+01 2.6306510247907021e+01 5.0641307819841259e+00 0 0 0
218 2 9.3703987806958136e+00 2.4293484782726225e+01 6.1271657531701154e+00 0 0 0
194 2 1.0710230089916717e+00 3.0280134322422398e+01 4.3865230184324409e+00 0 0 0
196 2 1.0844210710128424e+00 3.0266964027240313e+01 6.8549160822539266e+00 0 0 0
197 2 3.4078532717166805e+00 3.0292513343712823e+01 5.1770363334976635e+00 0 0 0
198 2 2.2699001638943104e+00 2.8260425361775660e+01 6.0295981883275838e+00 0 0 0
208 2 9.2759622651658695e+00 3.2297197540317491e+01 5.7870939407412356e+00 0 0 0
199 2 4.6013758489939001e+00 2.8280265955024468e+01 4.3490212143516640e+00 0 0 0
200 2 4.6147646973806102e+00 2.8254631073266694e+01 6.8148161083584906e+00 0 0 0
201 2 5.7569768550900688e+00 3.0284689891525559e+01 5.9438601980464414e+00 0 0 0
202 2 6.9426797455517999e+00 2.8291214902508909e+01 5.1164492615227743e+00 0 0 0
214 2 4.5771468091320013e+00 3.2299209482621407e+01 4.3373946139552277e+00 0 0 0
215 2 6.9223315431233265e+00 3.2292479206367346e+01 5.0755800327121827e+00 0 0 0
216 2 4.5788864320778799e+00 3.2278228717462859e+01 6.8062464004922196e+00 0 0 0
171 2 9.2860557036431022e+00 2.8305232089155368e+01 5.8411412729026937e+00 0 0 0
175 2 1.0460352723441027e+01 3.0302445014639876e+01 4.9008015235835973e+00 0 0 0
195 2 8.1046832013686263e+00 3.0298485981162862e+01 6.6804221894564968e+00 0 0 0
203 2 1.0460104491020138e+01 3.0302577389297252e+01 7.3732295073071317e+00 0 0 0
204 2 8.1055063470723052e+00 3.0298998724016048e+01 4.2084362254227328e+00 0 0 0
229 2 1.1633322299347054e+01 1.1087915456639071e-02 1.5272884458890277e+00 0 0 0
230 2 1.2804313141752587e+01 2.0241741610422119e+00 6.3403119672443387e-01 0 0 0
231 2 1.1610954999244647e+01 3.9989237944256795e+00 1.5925464697513065e+00 0 0 0
232 2 1.2804633438890603e+01 2.0241782534399140e+00 3.1067971319449406e+00 0 0 0
233 2 1.3990832242574083e+01 2.5332767194083283e-02 2.1961635223786171e+00 0 0 0
235 2 1.5162767488195534e+01 2.0382824333368856e+00 1.2898820702875522e+00 0 0 0
236 2 1.6346657074455873e+01 2.6263731602457555e-02 3.9430605904425764e-01 0 0 0
238 2 1.7521164790052648e+01 2.0228906398067892e+00 1.9537888357844742e+00 0 0 0
239 2 1.6346806820441099e+01 2.6265587978645564e-02 2.8670811314691820e+00 0 0 0
241 2 1.8701838022704631e+01 1.2993531460669465e-02 1.0821960767049530e+00 0 0 0
242 2 1.9881150138323903e+01 2.0008345647088830e+00 1.7323527098663805e-01 0 0 0
243 2 2.2231681553332390e+01 2.0012782766943844e+00 9.1263134802160029e-01 0 0 0
244 2 1.8701287188999071e+01 3.9987699531026322e+00 9.8966647441595734e-01 0 0 0
245 2 1.9881127885945656e+01 2.0008454093664794e+00 2.6459980917552559e+00 0 0 0
246 2 2.1059065188538074e+01 3.7311831801457970e-03 1.7942450039469848e+00 0 0 0
247 2 2.2231674469502433e+01 2.0012816038555807e+00 3.3854009368184217e+00 0 0 0
248 2 1.8701274038696234e+01 3.9987807486779992e+00 3.4624357966575170e+00 0 0 0
249 2 2.1047447611998017e+01 3.9995177729924700e+00 1.7231444942600989e+00 0 0 0
275 2 1.8701899248739675e+01 1.2993396997210343e-02 3.5549719550405197e+00 0 0 0
234 2 1.3976599567575171e+01 4.0435791172263738e+00 2.2106495988628581e+00 0 0 0
250 2 1.2778083600067180e+01 6.0036685965472332e+00 7.8919765303134859e-01 0 0 0
251 2 1.2777856545708154e+01 6.0036170415311734e+00 3.2619610738947515e+00 0 0 0
289 2 1.1634914844819475e+01 7.9838494633166954e+00 1.9238452075219463e+00 0 0 0
290 2 1.3970009251276167e+01 8.0078959487792876e+00 1.1490102951488494e-01 0 0 0
291 2 1.3969971386309140e+01 8.0078490567327787e+00 2.5876849910453186e+00 0 0 0
237 2 1.6338420975264530e+01 4.0379884606457184e+00 3.4150560386838930e-01 0 0 0
240 2 1.6338383382176030e+01 4.0380301654804613e+00 2.8142678987655616e+00 0 0 0
252 2 1.5151984548962478e+01 6.0468309848553901e+00 1.2293041100030366e+00 0 0 0
253 2 1.7517859004086858e+01 5.9975681333374391e+00 1.7338426739359285e+00 0 0 0
284 2 1.5151880901753266e+01 6.0468328568070868e+00 3.7020824573250288e+00 0 0 0
292 2 1.6341701836361885e+01 8.0304454984335951e+00 2.1983525902716017e+00 0 0 0
293 2 1.8647486010510217e+01 8.0083583997177978e+00 6.9943856209413746e-01 0 0 0
294 2 1.8647476844564487e+01 8.0083536406632803e+00 3.1722129729163866e+00 0 0 0
254 2 1.9854333177167998e+01 6.0004944188447702e+00 1.2402992438189800e-02 0 0 0
255 2 2.2189011865225218e+01 6.0146023014834382e+00 8.0630528420127601e-01 0 0 0
256 2 1.9854341860672907e+01 6.0004974382939009e+00 2.4851795722394061e+00 0 0 0
257 2 2.2189014529461190e+01 6.0146029772848602e+00 3.2790794758436768e+00 0 0 0
295 2 2.0981239193532819e+01 8.0214540476770857e+00 1.5501471940192728e+00 0 0 0
258 2 1.3990475437480301e+01 2.5374040383422513e-02 7.1417248545828906e+00 0 0 0
260 2 1.1635067307837431e+01 1.0802005900363463e-02 4.0007376055786388e+00 0 0 0
261 2 1.1610717777116513e+01 3.9987061781266369e+00 4.0652386218949950e+00 0 0 0
262 2 1.1632537456183110e+01 1.1196033018198574e-02 6.4729274846740275e+00 0 0 0
263 2 1.2804937415692146e+01 2.0240400652308308e+00 5.5797782797364537e+00 0 0 0
264 2 1.3991358085127510e+01 2.5320642407404868e-02 4.6691617900884719e+00 0 0 0
265 2 1.1611188883616297e+01 3.9987913414085772e+00 6.5381134515902888e+00 0 0 0
267 2 1.7521236587331405e+01 2.0228602660225010e+00 6.8993623466200571e+00 0 0 0
268 2 1.5162914115986746e+01 2.0383118497990154e+00 3.7626626125777105e+00 0 0 0
269 2 1.5162985771702621e+01 2.0382308159150568e+00 6.2355044262619996e+00 0 0 0
270 2 1.7521224962117099e+01 2.0228930251636630e+00 4.4265691424995284e+00 0 0 0
271 2 1.6346962733135001e+01 2.6248988417346138e-02 5.3399270455300805e+00 0 0 0
273 2 2.1059100979901118e+01 3.7274038378420815e-03 6.7398005806392893e+00 0 0 0
274 2 2.1047441241883067e+01 3.9995164002371002e+00 6.6686888336855983e+00 0 0 0
276 2 1.8701943396786287e+01 1.2983453051108059e-02 6.0277689659436584e+00 0 0 0
277 2 1.9881151571015266e+01 2.0008429349479013e+00 5.1187751526950596e+00 0 0 0
278 2 2.1059089115016778e+01 3.7291942005036214e-03 4.2670200279622623e+00 0 0 0
279 2 2.2231683564636732e+01 2.0012809780255036e+00 5.8581757972768305e+00 0 0 0
280 2 1.8701268920857277e+01 3.9987671926572617e+00 5.9352071735449874e+00 0 0 0
281 2 2.1047442915557095e+01 3.9995207079427573e+00 4.1959163153819885e+00 0 0 0
259 2 1.3976700550595476e+01 4.0435220704310364e+00 7.1562144753119226e+00 0 0 0
266 2 1.3976540263437856e+01 4.0435535232601323e+00 4.6833938567443250e+00 0 0 0
282 2 1.2777929839006529e+01 6.0036857062105788e+00 5.7346832648013581e+00 0 0 0
296 2 1.1634841712382249e+01 7.9838177407165549e+00 4.3965686675641971e+00 0 0 0
297 2 1.1634998735514719e+01 7.9840156543248133e+00 6.8693269093111482e+00 0 0 0
298 2 1.3969954427770022e+01 8.0078942773006627e+00 5.0604314927541170e+00 0 0 0
272 2 1.6338364424420526e+01 4.0380037775559430e+00 5.2870376601056730e+00 0 0 0
283 2 1.7517829813133151e+01 5.9975538443286576e+00 6.6793839717684538e+00 0 0 0
285 2 1.5151907027584048e+01 6.0468379028176100e+00 6.1748504111148721e+00 0 0 0
286 2 1.7517816387572669e+01 5.9975587975686073e+00 4.2066122030176585e+00 0 0 0
299 2 1.6341716426273834e+01 8.0304430411028367e+00 7.1438976728376069e+00 0 0 0
300 2 1.6341689670120861e+01 8.0304355044397528e+00 4.6711245628684903e+00 0 0 0
303 2 1.8647473751695244e+01 8.0083532047206507e+00 5.6449838062967199e+00 0 0 0
287 2 1.9854325337192702e+01 6.0004933002169683e+00 4.9579499373466156e+00 0 0 0
288 2 2.2189008275885072e+01 6.0146017262338765e+00 5.7518511806437322e+00 0 0 0
301 2 2.0981234270605416e+01 8.0214526398788255e+00 6.4956921712405151e+00 0 0 0
302 2 2.0981234561737022e+01 8.0214515154497441e+00 4.0229204837347101e+00 0 0 0
305 2 1.2857264513560681e+01 1.0007026587482205e+01 1.4689339032434889e+00 0 0 0
307 2 1.1709567955766467e+01 1.2043470948748991e+01 2.3274825697591588e+00 0 0 0
308 2 1.3988976481300689e+01 1.2077516816858997e+01 9.6510215386617826e-01 0 0 0
310 2 1.3988975073858652e+01 1.2077501716630181e+01 3.4378748538897281e+00 0 0 0
311 2 1.5173817610685164e+01 1.0041717981782130e+01 3.0058048667140134e+00 0 0 0
312 2 1.7489755482413237e+01 1.0048099619611904e+01 1.3756713545702939e+00 0 0 0
313 2 1.6286879897010103e+01 1.2062401885339913e+01 2.0441660089823062e+00 0 0 0
315 2 1.5173837764225448e+01 1.0041738350066908e+01 5.3303208471954699e-01 0 0 0
319 2 1.8609869417439068e+01 1.2073628812150448e+01 2.9819628184301497e+00 0 0 0
324 2 1.8609873291713900e+01 1.2073631750446118e+01 5.0919049462162325e-01 0 0 0
317 2 1.9794876415913450e+01 1.0040585102528039e+01 2.2772203664563841e+00 0 0 0
318 2 2.2116398851258907e+01 1.0053689004219610e+01 3.1421951190089992e+00 0 0 0
320 2 2.0925837720470359e+01 1.2078136302215285e+01 1.4157196975553905e+00 0 0 0
323 2 2.2116399852149488e+01 1.0053690264004127e+01 6.6942179783324096e-01 0 0 0
325 2 1.2841504521156166e+01 1.4104143548338312e+01 1.6719007073966214e+00 0 0 0
326 2 1.1692302454040957e+01 1.6134141352383267e+01 2.4171208379748337e+00 0 0 0
327 2 1.3990633502081378e+01 1.6137181404862044e+01 9.4961467772334451e-01 0 0 0
328 2 1.3990651713632682e+01 1.6137168355640522e+01 3.4223846721818107e+00 0 0 0
329 2 1.5139709484989043e+01 1.4106449411902027e+01 2.7059114874493435e+00 0 0 0
330 2 1.7438698825614512e+01 1.4099511177851843e+01 1.2274781161287380e+00 0 0 0
331 2 1.6290275931382975e+01 1.6138544891754925e+01 1.9502445870237666e+00 0 0 0
332 2 1.7438700886806323e+01 1.4099511055869984e+01 3.7002492095944848e+00 0 0 0
333 2 1.5139709274151320e+01 1.4106460569066238e+01 2.3314113811350032e-01 0 0 0
336 2 1.8588706031505708e+01 1.6144043461593416e+01 2.9197363188725354e+00 0 0 0
340 2 1.8588708050266320e+01 1.6144041937318789e+01 4.4696422073656134e-01 0 0 0
334 2 1.9750789829996990e+01 1.4110629086511089e+01 2.1619198040808616e+00 0 0 0
335 2 2.2065699570573969e+01 1.4118195916194814e+01 3.0599933743416474e+00 0 0 0
339 2 2.2065700619863176e+01 1.4118196176452027e+01 5.8722061601673192e-01 0 0 0
342 2 1.2857246262660823e+01 1.0007009162350965e+01 3.9417010909269701e+00 0 0 0
343 2 1.1709595769921059e+01 1.2043477361076325e+01 4.8002527167959625e+00 0 0 0
345 2 1.2857304485972474e+01 1.0007104704567148e+01 6.4144773346960253e+00 0 0 0
347 2 1.1709583368986657e+01 1.2043537519601447e+01 7.2730115546144569e+00 0 0 0
348 2 1.3989002252449534e+01 1.2077541342407274e+01 5.9106442620057944e+00 0 0 0
350 2 1.5173837297264726e+01 1.0041729946995520e+01 5.4785757123193113e+00 0 0 0
351 2 1.7489746745644414e+01 1.0048095925654726e+01 3.8484436766329444e+00 0 0 0
352 2 1.6286883166719427e+01 1.2062407222527980e+01 4.5169369498582022e+00 0 0 0
353 2 1.7489755403332847e+01 1.0048101709154508e+01 6.3212163852849184e+00 0 0 0
355 2 1.6286889318391768e+01 1.2062412090345845e+01 6.9897117169292891e+00 0 0 0
359 2 1.8609871878877758e+01 1.2073631625134107e+01 5.4547350176918741e+00 0 0 0
354 2 2.0925837784967605e+01 1.2078136747329340e+01 6.3612647921969945e+00 0 0 0
356 2 1.9794877795960137e+01 1.0040587507665736e+01 7.2227650278030167e+00 0 0 0
357 2 1.9794873129088298e+01 1.0040584469664035e+01 4.7499923127303791e+00 0 0 0
358 2 2.2116397892437156e+01 1.0053689231607766e+01 5.6149674101293661e+00 0 0 0
360 2 2.0925836258632184e+01 1.2078135352727584e+01 3.8884921376304931e+00 0 0 0
338 2 1.3990644755066103e+01 1.6137184048885334e+01 5.8951618392922338e+00 0 0 0
341 2 1.1692267028739167e+01 1.6134182043738235e+01 7.3626757069436364e+00 0 0 0
344 2 1.2841506950287107e+01 1.4104171322018880e+01 6.6174461607249624e+00 0 0 0
346 2 1.1692289255881926e+01 1.6134120067119067e+01 4.8899066938868003e+00 0 0 0
349 2 1.2841519708437874e+01 1.4104140500527704e+01 4.1446748706363934e+00 0 0 0
306 2 1.8588710712527256e+01 1.6144042575934442e+01 5.3925090161219149e+00 0 0 0
316 2 1.6290281466502599e+01 1.6138546029807841e+01 6.8957912277397826e+00 0 0 0
321 2 1.7438704303889462e+01 1.4099514062509609e+01 6.1730233000325319e+00 0 0 0
322 2 1.6290286344097520e+01 1.6138546195310131e+01 4.4230157380893456e+00 0 0 0
337 2 1.5139720099672386e+01 1.4106465752401991e+01 5.1786837495710731e+00 0 0 0
304 2 1.9750792395133434e+01 1.4110629708500753e+01 7.1074655914106177e+00 0 0 0
309 2 2.2065700471050569e+01 1.4118196106391924e+01 5.5327660233540366e+00 0 0 0
314 2 1.9750791409129942e+01 1.4110629233771283e+01 4.6346919232224080e+00 0 0 0
361 2 1.2841013935095946e+01 1.8166223760409324e+01 1.6777356302842588e+00 0 0 0
362 2 1.5140981472096822e+01 1.8168002850636984e+01 2.6905325370150486e+00 0 0 0
363 2 1.7437094958340712e+01 1.8182347036164092e+01 1.2131313284961693e+00 0 0 0
364 2 1.7437092859660563e+01 1.8182351534765495e+01 3.6859030231219347e+00 0 0 0
365 2 1.5140987044232766e+01 1.8168000178260769e+01 2.1776180165388823e-01 0 0 0
366 2 1.9737085256653188e+01 1.8193458068725153e+01 2.1629916452368541e+00 0 0 0