LAMMPS data file via write_data, version 11 Aug 2017, timestep = 1000

865 atoms
2 atom types

0.0000000000000000e+00 4.1964347678061998e+01 xlo xhi
0.0000000000000000e+00 3.2304169904395003e+01 ylo yhi
0.0000000000000000e+00 7.4183187028070003e+00 zlo zhi

Masses

1 12.0107
2 55.845

Atoms # atomic

1 2 1.0664423248067600e+00 2.0011376961761269e+00 1.6911976713286956e+00 0 0 0
4 2 2.2306009466186936e+00 4.0394640538421269e+00 9.2160168003947518e-01 0 0 0
6 2 3.4065881746924558e+00 1.9842418469492025e+00 2.5498630886725793e+00 0 0 0
9 2 2.2468908513600439e+00 4.0264914267139389e+00 3.3908676095951993e+00 0 0 0
24 2 3.3642672132342919e+00 1.9783376518178379e+00 7.0855946823894331e-02 0 0 0
865 1 1.6413476260745179e+00 1.0073944483700061e+00 9.4846993418912118e-02 0 0 0
11 2 5.7451427159245494e+00 1.9877348280339318e+00 8.0656839215121390e-01 0 0 0
12 2 8.1218360009811938e+00 2.0002040436743749e+00 1.4877152378207585e+00 0 0 0
13 2 4.5728653893301470e+00 3.9881528381968563e+00 1.7266621818140035e+00 0 0 0
14 2 5.7591985165341590e+00 1.9866451388866326e+00 3.2859588686915080e+00 0 0 0
16 2 6.9289718291385656e+00 3.9803793090578492e+00 2.4561529382393452e+00 0 0 0
17 2 1.1061350610653837e+00 6.0605606641135816e+00 1.8358155267466947e+00 0 0 0
18 2 3.4509142927421554e+00 6.0273511294093867e+00 1.7676327818883167e-01 0 0 0
19 2 3.4489925558008063e+00 6.0254192710216357e+00 2.6478438441689613e+00 0 0 0
45 2 4.6806638728887844e+00 8.0288863985678933e+00 4.4167058334780265e+00 0 0 0
35 2 2.3364698666431480e+00 8.0552889250079254e+00 1.1005430125976752e+00 0 0 0
44 2 7.0121374504173506e+00 7.9935823838248270e+00 5.2891740914072303e+00 0 0 0
37 2 2.3373413322870586e+00 8.0556210334061298e+00 3.5724077684808009e+00 0 0 0
20 2 5.7802431880785354e+00 5.9883808040293616e+00 9.8482629661669152e-01 0 0 0
21 2 8.1131890066258201e+00 5.9773446641684842e+00 1.7196470203025758e+00 0 0 0
22 2 5.7815783764935746e+00 5.9931242785204351e+00 3.4560993102273625e+00 0 0 0
38 2 4.6772749482600897e+00 8.0223164867559014e+00 1.9455116460660027e+00 0 0 0
39 2 7.0119571317066853e+00 7.9933795488415207e+00 3.4344508093617215e-01 0 0 0
40 2 7.0120640254142490e+00 7.9954215479763686e+00 2.8156833661817378e+00 0 0 0
25 2 1.0505771128700447e+00 2.0262093762278446e+00 4.1397404905339226e+00 0 0 0
27 2 9.0760799756980226e-01 2.2709677614373707e+00 6.4850242642011970e+00 0 0 0
28 2 3.3862668054372258e+00 2.0141056985822279e+00 5.0115867321154601e+00 0 0 0
31 2 2.2656098158466600e+00 4.0821074876266925e+00 5.8571363625702748e+00 0 0 0
2 2 6.9312164404814718e+00 3.9750259987908438e+00 4.9312180595766275e+00 0 0 0
7 2 4.5785013969444428e+00 3.9829160482867758e+00 6.6792467882388475e+00 0 0 0
10 2 8.1207865979706089e+00 1.9975347374787067e+00 6.4342149893535456e+00 0 0 0
15 2 5.7446452815611115e+00 1.9793145382007205e+00 5.7590108882341893e+00 0 0 0
29 2 4.5844492613485945e+00 3.9974145320316286e+00 4.2003174212865648e+00 0 0 0
32 2 8.1253374467762303e+00 1.9962611548382614e+00 3.9630252042855965e+00 0 0 0
33 2 6.9308317798924772e+00 3.9783564909928324e+00 7.4027796562542232e+00 0 0 0
23 2 3.4604753635278138e+00 6.0428193534968857e+00 5.1168016190708521e+00 0 0 0
26 2 1.1090429677707756e+00 6.0733629019248907e+00 6.7789162281321431e+00 0 0 0
30 2 1.1157967129908894e+00 6.0567866803431452e+00 4.3051883947775913e+00 0 0 0
43 2 4.6788845246917621e+00 8.0231929632229253e+00 6.8915172082490948e+00 0 0 0
42 2 2.3385877923398546e+00 8.0600568542385815e+00 6.0453361734427027e+00 0 0 0
3 2 8.1141173090562990e+00 5.9760772100785111e+00 6.6652747720661658e+00 0 0 0
5 2 5.7824765446999340e+00 5.9871982684044038e+00 5.9314832074862318e+00 0 0 0
8 2 8.1127761603641648e+00 5.9753458863016586e+00 4.1926859543424078e+00 0 0 0
171 2 2.2187667585516251e+00 1.5340940192295704e-02 5.9202220513478521e+00 0 1 0
46 2 1.2178973847741668e+00 1.0086661716759373e+01 1.9960147330672862e+00 0 0 0
47 2 3.5552064707539914e+00 1.0056892719853312e+01 3.7756686402103745e-01 0 0 0
48 2 8.7414194442003948e-02 1.2118921743850708e+01 3.9962966499162222e-01 0 0 0
49 2 2.4195960783957706e+00 1.2094324980005778e+01 1.2434878157777591e+00 0 0 0
51 2 3.5552206689587362e+00 1.0057089524930124e+01 2.8499899476561517e+00 0 0 0
53 2 8.7202967498940645e-02 1.2118227954186843e+01 2.8724961573423280e+00 0 0 0
57 2 5.8870619917074043e+00 1.0032219553354933e+01 1.2661315873612047e+00 0 0 0
58 2 8.2031636203451104e+00 1.0030059569137364e+01 2.2275590301934605e+00 0 0 0
59 2 4.7434149516443505e+00 1.2073880669914336e+01 2.1250169773380132e+00 0 0 0
60 2 7.0528070305619455e+00 1.2067990770852402e+01 5.8841714908160769e-01 0 0 0
63 2 7.0532478718525864e+00 1.2068785555555126e+01 3.0609769057005876e+00 0 0 0
65 2 1.2739711736402168e+00 1.4129001257526841e+01 2.0888633201194100e+00 0 0 0
66 2 3.5960030674980259e+00 1.4116465652018157e+01 4.8112585712828188e-01 0 0 0
64 2 5.9030958341990027e+00 1.4109694813910959e+01 3.8688106197895316e+00 0 0 0
62 2 8.1969056166588015e+00 1.4116866819911737e+01 4.8377722945876673e+00 0 0 0
69 2 3.5960095223406476e+00 1.4116438632676831e+01 2.9538575110678917e+00 0 0 0
56 2 5.9030007151899753e+00 1.4109444629254259e+01 6.3416509839302746e+00 0 0 0
71 2 5.9030372683034251e+00 1.4109435883275477e+01 1.3960583336541812e+00 0 0 0
72 2 8.1969653752831420e+00 1.4117028813901166e+01 2.3649273753067552e+00 0 0 0
55 2 8.1968124717193831e+00 1.4116756044133442e+01 7.3105492505302019e+00 0 0 0
93 2 1.2739228479959313e+00 1.4129045691568198e+01 4.5615931746440692e+00 0 0 0
84 2 1.2739617682381639e+00 1.4129368763582836e+01 7.0343794176689514e+00 0 0 0
54 2 2.4194921281737667e+00 1.2094345420151329e+01 3.7161575333306058e+00 0 0 0
78 2 1.2180329592515780e+00 1.0086520557070379e+01 4.4684928300045117e+00 0 0 0
79 2 1.2184043940528497e+00 1.0088349061400098e+01 6.9412875611591343e+00 0 0 0
80 2 3.5555132335629884e+00 1.0059010092975701e+01 5.3227367310676739e+00 0 0 0
81 2 8.7279603814326007e-02 1.2118200446658577e+01 5.3451290957391944e+00 0 0 0
82 2 2.4195646861825240e+00 1.2095128403770927e+01 6.1889395860483507e+00 0 0 0
85 2 5.8880930651108443e+00 1.0034672700189688e+01 3.7383276093153284e+00 0 0 0
86 2 8.2030995856920654e+00 1.0029556758693895e+01 4.7005562190495365e+00 0 0 0
87 2 4.7434756759453807e+00 1.2074650760558221e+01 4.5977653001981063e+00 0 0 0
89 2 5.8874369672830058e+00 1.0032905910408314e+01 6.2117670930418276e+00 0 0 0
90 2 8.2029155962478715e+00 1.0029435780664610e+01 7.1733018014898597e+00 0 0 0
91 2 4.7432963002217043e+00 1.2073912587217468e+01 7.0707028316850113e+00 0 0 0
92 2 7.0530055512820518e+00 1.2068277236023542e+01 5.5339736584484687e+00 0 0 0
83 2 3.5960046752058021e+00 1.4116762047211628e+01 5.4266262208474654e+00 0 0 0
94 2 1.2746974273235414e+00 1.8178038970374029e+01 2.0938537834052391e+00 0 0 0
95 2 3.5965147955373666e+00 1.8190002683417823e+01 4.8640508620355738e-01 0 0 0
96 2 3.5965142391634171e+00 1.8190084436882984e+01 2.9591943781014600e+00 0 0 0
97 2 5.9037151142198656e+00 1.8195969031113481e+01 1.4007668440253414e+00 0 0 0
98 2 8.1983431789205827e+00 1.8186651098291872e+01 2.3680245286178070e+00 0 0 0
99 2 8.9259569615958823e-02 2.0189869623476188e+01 4.0919817830292482e-01 0 0 0
100 2 1.2206405739112249e+00 2.2221002069449185e+01 2.0124926977865920e+00 0 0 0
101 2 3.5568916522800200e+00 2.2249265877069302e+01 3.9479597955402507e-01 0 0 0
102 2 2.4207712296387371e+00 2.0212558116222780e+01 1.2542812790687592e+00 0 0 0
132 2 4.7444669342145058e+00 2.0232185540443158e+01 4.6083649932929838e+00 0 0 0
105 2 8.9254902264722866e-02 2.0189460856436234e+01 2.8820161035245007e+00 0 0 0
106 2 3.5569335070525403e+00 2.2249955373775059e+01 2.8676770617459053e+00 0 0 0
127 2 5.8899311813836466e+00 2.2271441102327337e+01 3.7532551906902984e+00 0 0 0
110 2 4.7444174409199436e+00 2.0232039548069441e+01 2.1356524420370988e+00 0 0 0
111 2 5.8896704289318702e+00 2.2271203265893931e+01 1.2806888607566833e+00 0 0 0
112 2 7.0550651021345612e+00 2.0235459452298816e+01 5.9624760037207536e-01 0 0 0
113 2 8.2087673340586065e+00 2.2270002191459305e+01 2.2350540175336815e+00 0 0 0
115 2 7.0551460133861053e+00 2.0235584767787099e+01 3.0689459185296060e+00 0 0 0
118 2 1.2746961415990987e+00 1.8178169356752182e+01 4.5666325706334714e+00 0 0 0
119 2 1.2746973966144610e+00 1.8178263587618616e+01 7.0393818962185222e+00 0 0 0
120 2 3.5965146174574603e+00 1.8190196432892996e+01 5.4319444566292541e+00 0 0 0
121 2 5.9037358043367831e+00 1.8196057191037465e+01 3.8735170223042905e+00 0 0 0
122 2 8.1983727603493044e+00 1.8186501980170849e+01 4.8407868003720038e+00 0 0 0
123 2 5.9037251677582709e+00 1.8195914294611896e+01 6.3462925597253257e+00 0 0 0
124 2 8.1983127109863130e+00 1.8186579690673248e+01 7.3135969330027466e+00 0 0 0
107 2 2.4207972103637192e+00 2.0212841827684876e+01 3.7270906759203308e+00 0 0 0
125 2 1.2206927372069762e+00 2.2221751677122981e+01 4.4853040076879553e+00 0 0 0
117 2 8.2094668296709337e+00 2.2268852537478665e+01 4.7075096915206434e+00 0 0 0
128 2 8.9244064339849577e-02 2.0189784933374185e+01 5.3548015668974358e+00 0 0 0
129 2 1.2206616833142154e+00 2.2221987465234971e+01 6.9579469702424150e+00 0 0 0
130 2 3.5570300809348407e+00 2.2250216439742008e+01 5.3402899274343474e+00 0 0 0
131 2 2.4207784814051863e+00 2.0212990859607569e+01 6.1998038824851953e+00 0 0 0
104 2 8.2091397914651676e+00 2.2269200636567195e+01 7.1805510533218140e+00 0 0 0
109 2 7.0552402341759022e+00 2.0235213385481490e+01 5.5416765372586756e+00 0 0 0
114 2 5.8901148841810196e+00 2.2270430409845254e+01 6.2259337037532152e+00 0 0 0
116 2 4.7444333458399726e+00 2.0231833720832100e+01 7.0811391271210313e+00 0 0 0
67 2 1.1511128913626377e-01 1.6153828633317559e+01 4.4882591695883506e-01 0 0 0
68 2 2.4419859354306102e+00 1.6153368257484541e+01 1.2929410189885220e+00 0 0 0
70 2 1.1510895516926056e-01 1.6153613365537431e+01 2.9216133902145209e+00 0 0 0
61 2 4.7537092352193682e+00 1.6153180684256359e+01 4.6566565346510380e+00 0 0 0
73 2 4.7537026057807124e+00 1.6153051049210802e+01 2.1838955928914476e+00 0 0 0
74 2 7.0501558975759382e+00 1.6152378010229551e+01 6.5505783481516344e-01 0 0 0
52 2 4.7537009423577894e+00 1.6153043347618247e+01 7.1294462652858295e+00 0 0 0
50 2 7.0501496374982908e+00 1.6152366417708190e+01 5.6006126408200672e+00 0 0 0
75 2 7.0501843544425720e+00 1.6152483956830533e+01 3.1278172220129270e+00 0 0 0
88 2 2.4419800403603125e+00 1.6153400761407148e+01 3.7657022556459898e+00 0 0 0
76 2 2.4419834520782011e+00 1.6153557371218074e+01 6.2384688801483472e+00 0 0 0
77 2 1.1509428104681811e-01 1.6153689982235242e+01 5.3943729678515124e+00 0 0 0
133 2 1.1148394548101548e+00 2.6246775935211193e+01 1.8714386507134417e+00 0 0 0
134 2 3.4571335983368683e+00 2.6274032312889553e+01 2.1131671168926663e-01 0 0 0
135 2 3.4549693597752591e+00 2.6281011400464333e+01 2.6855191695299836e+00 0 0 0
175 2 2.3403721975971119e+00 2.4253428422534100e+01 3.5991071458924915e+00 0 0 0
176 2 2.3402451617903610e+00 2.4251513985734267e+01 1.1262491999309487e+00 0 0 0
136 2 5.7937182149364164e+00 2.6302688211995555e+01 1.0014707975056838e+00 0 0 0
137 2 8.1253206682314492e+00 2.6318365660275923e+01 1.7329211048999773e+00 0 0 0
138 2 5.7917562102799955e+00 2.6307127736409452e+01 3.4742932136721456e+00 0 0 0
177 2 7.0196848105409977e+00 2.4303720504532777e+01 2.8286353545054208e+00 0 0 0
178 2 4.6812459520312597e+00 2.4282051924295828e+01 1.9690509785955610e+00 0 0 0
179 2 7.0205700740040164e+00 2.4301851768525427e+01 3.5578298830326194e-01 0 0 0
140 2 1.0365674780342389e+00 3.0228341753698466e+01 1.8064917828546088e+00 0 0 0
141 2 2.2508768062637898e+00 2.8260435744998336e+01 9.8272844152975158e-01 0 0 0
143 2 3.4181717669993996e+00 3.0278380765923934e+01 2.5832577023663221e+00 0 0 0
144 2 2.2452727864422393e+00 2.8277432660151021e+01 3.4569409595994181e+00 0 0 0
156 2 3.4389569607859958e+00 3.0234501457483599e+01 7.9788079361780145e-02 0 0 0
166 2 2.3753875671926119e+00 3.2053314354617541e+01 1.1296865835811962e+00 0 0 0
167 2 2.2348308532288557e+00 3.2296351669510102e+01 3.4735585629674026e+00 0 0 0
145 2 4.5977929906104205e+00 2.8296435497009952e+01 1.7515725732762415e+00 0 0 0
146 2 5.7791558142182646e+00 3.0297988121715406e+01 8.2797466777550854e-01 0 0 0
147 2 8.1399850618798428e+00 3.0296742384472232e+01 1.5002530775027978e+00 0 0 0
148 2 5.7708753336866527e+00 3.0311546544866353e+01 3.3017944734867157e+00 0 0 0
149 2 6.9467264337616923e+00 2.8316268375743416e+01 2.4724546721479768e+00 0 0 0
168 2 4.6457931044888543e+00 3.2293555281699099e+01 1.7186029406411645e+00 0 0 0
169 2 6.9740614938187253e+00 3.2300442906621754e+01 2.3956621482856519e+00 0 0 0
150 2 1.1156666869633547e+00 2.6251512172720290e+01 4.3442820109070883e+00 0 0 0
151 2 1.1171710055339195e+00 2.6252754057961717e+01 6.8160119218541872e+00 0 0 0
152 2 3.4568542084064080e+00 2.6280739892279726e+01 5.1564977218319443e+00 0 0 0
182 2 2.3405952212824981e+00 2.4253792459702595e+01 6.0715139021209419e+00 0 0 0
153 2 8.1255714528382317e+00 2.6316905024416140e+01 4.2047892073425626e+00 0 0 0
154 2 5.7962780279370874e+00 2.6297587693604537e+01 5.9444252676419813e+00 0 0 0
155 2 8.1269673327290715e+00 2.6315965341248344e+01 6.6778852597798020e+00 0 0 0
180 2 7.0214671524776753e+00 2.4300469608611831e+01 5.3004244388907544e+00 0 0 0
181 2 4.6821864488070908e+00 2.4279595961121519e+01 6.9138726655363767e+00 0 0 0
183 2 4.6819059512004291e+00 2.4282323844356331e+01 4.4411408891227611e+00 0 0 0
157 2 1.0582057638889006e+00 3.0286099595729382e+01 4.2726135276092299e+00 0 0 0
159 2 1.0706322467651901e+00 3.0272740456321728e+01 6.7410292898297923e+00 0 0 0
160 2 3.4041436866596202e+00 3.0306915774056367e+01 5.0470060314879364e+00 0 0 0
161 2 2.2540301881217482e+00 2.8276604692094850e+01 5.9258914312317321e+00 0 0 0
174 2 4.5891169768693176e+00 3.2303876333092539e+01 4.1838980300528723e+00 0 0 0
139 2 8.1363966078148540e+00 3.0296614912027550e+01 6.4451877616015754e+00 0 0 0
142 2 6.9475862090899287e+00 2.8312463983841702e+01 4.9433737798599759e+00 0 0 0
158 2 5.7696331104848673e+00 3.0300353830439281e+01 5.7710457479231740e+00 0 0 0
162 2 6.9506310680526102e+00 2.8310851720220413e+01 7.4169399750604326e+00 0 0 0
163 2 4.5939280719670030e+00 2.8305875409137730e+01 4.2254124308849672e+00 0 0 0
164 2 8.1371189290108887e+00 3.0297245883464601e+01 3.9731357812163566e+00 0 0 0
165 2 4.6065432665009718e+00 2.8279512327450234e+01 6.6910769401808707e+00 0 0 0
170 2 6.9540987567501951e+00 3.2297547975712256e+01 4.8646110411885610e+00 0 0 0
172 2 4.5895010789797297e+00 3.2281451396507364e+01 6.6529084465323836e+00 0 0 0
173 2 6.9566267056320727e+00 3.2298534079682184e+01 7.3352806098616625e+00 0 0 0
186 2 1.1673097490925736e+01 4.0095647003856776e+00 1.1817638131110844e+00 0 0 0
187 2 9.2991503791587640e+00 4.0092124931383664e+00 6.0983236541118013e-01 0 0 0
188 2 1.0490125280510206e+01 2.0103917889018543e+00 2.1366876633601244e+00 0 0 0
190 2 9.2981752575344938e+00 4.0079774914849038e+00 3.0826158206408758e+00 0 0 0
207 2 1.1672768440554956e+01 4.0093441248157857e+00 3.6544818483194210e+00 0 0 0
191 2 1.2856155273289593e+01 1.9999901878574726e+00 3.1162314556845094e-01 0 0 0
192 2 1.5224192053092080e+01 1.9890929870851799e+00 9.8810127430655792e-01 0 0 0
194 2 1.6390906026760451e+01 3.9913541412608287e+00 5.1283240945413297e-02 0 0 0
195 2 1.2856454096386816e+01 2.0000067239715635e+00 2.7843862814401761e+00 0 0 0
198 2 1.4040343937286382e+01 3.9804923398593295e+00 1.8041949257566168e+00 0 0 0
199 2 1.6390880693455721e+01 3.9913907129368198e+00 2.5240491909631837e+00 0 0 0
210 2 1.5224328721301690e+01 1.9891291606399595e+00 3.4608800451593602e+00 0 0 0
200 2 1.0485224132236743e+01 5.9897805259950365e+00 2.1311672650944637e+00 0 0 0
214 2 1.1652846790354209e+01 8.0049555228860854e+00 4.8705130940953512e-01 0 0 0
215 2 1.1652587957737703e+01 8.0047743461449858e+00 2.9598180721724194e+00 0 0 0
216 2 9.3219990380366440e+00 8.0049900177203188e+00 1.2969982731436029e+00 0 0 0
201 2 1.2858856641181836e+01 5.9774090566334088e+00 6.4782520195875382e-02 0 0 0
202 2 1.5191977717884097e+01 5.9881768679055956e+00 7.9504704382517655e-01 0 0 0
203 2 1.2858548975820936e+01 5.9773321178196772e+00 2.5375416699856492e+00 0 0 0
204 2 1.5191858422059667e+01 5.9881656467270634e+00 3.2678066882891685e+00 0 0 0
218 2 1.3964033080203391e+01 7.9918474905149184e+00 1.4367601669980630e+00 0 0 0
219 2 1.6301082079167994e+01 8.0124995222456299e+00 2.2987250379580519e+00 0 0 0
205 2 1.0489542005903537e+01 2.0104848753593920e+00 7.0823273272268343e+00 0 0 0
208 2 1.0491169014366779e+01 2.0096077316151728e+00 4.6100886793747353e+00 0 0 0
211 2 1.1673281341226330e+01 4.0094550433322187e+00 6.1273214179612925e+00 0 0 0
212 2 9.2994226432625720e+00 4.0076643694665126e+00 5.5555674596766336e+00 0 0 0
196 2 1.6390849428668346e+01 3.9913647808109594e+00 4.9968146577023314e+00 0 0 0
197 2 1.4040257706099293e+01 3.9804675172006481e+00 4.2769303973617054e+00 0 0 0
206 2 1.5224386729977464e+01 1.9890483352926240e+00 5.9337149279952239e+00 0 0 0
209 2 1.2856729846320633e+01 1.9998813682294196e+00 5.2573542974073160e+00 0 0 0
213 2 1.4040424249395196e+01 3.9804321611649485e+00 6.7497498396889464e+00 0 0 0
189 2 1.0485131177774498e+01 5.9897286203255131e+00 4.6039016598483871e+00 0 0 0
193 2 1.0485934094313812e+01 5.9901721336536911e+00 7.0765267442439388e+00 0 0 0
217 2 9.3214211910322256e+00 8.0042614210207610e+00 3.7697443199774576e+00 0 0 0
220 2 9.3218707717295164e+00 8.0047258746048193e+00 6.2425568061802350e+00 0 0 0
221 2 1.1652681195304119e+01 8.0048357064949656e+00 5.4325067596237835e+00 0 0 0
184 2 1.5191868102138667e+01 5.9881656049710674e+00 5.7405596054995147e+00 0 0 0
185 2 1.2858510739318820e+01 5.9773364948428247e+00 5.0103026701963174e+00 0 0 0
222 2 1.3963998691421235e+01 7.9918734908746920e+00 6.3822742801373158e+00 0 0 0
223 2 1.6301079238677787e+01 8.0125127196774280e+00 7.2442594406460818e+00 0 0 0
224 2 1.3963945230773962e+01 7.9918344611595549e+00 3.9095092388452350e+00 0 0 0
225 2 1.6301050037083833e+01 8.0125026213517465e+00 4.7714879526068890e+00 0 0 0
226 2 1.0488675744893536e+01 1.0062975334206497e+01 8.9177306174080850e-01 0 0 0
228 2 1.1638471158161284e+01 1.2086480793567048e+01 2.6530268395340082e+00 0 0 0
229 2 9.3426999937696671e+00 1.2088199629923398e+01 1.6021948744119230e+00 0 0 0
230 2 1.0488457417277852e+01 1.0062669334608477e+01 3.3645856058742241e+00 0 0 0
234 2 1.1638536165128130e+01 1.2086588515945643e+01 1.8022792822471664e-01 0 0 0
235 2 1.2775373016466439e+01 1.0027364226429201e+01 2.0264733774615853e+00 0 0 0
236 2 1.5093256484024723e+01 1.0025258556854707e+01 2.9832398059239420e+00 0 0 0
237 2 1.3929233459736020e+01 1.2063145647871483e+01 1.1917752023510044e+00 0 0 0
238 2 1.6238096011205094e+01 1.2067024422074180e+01 2.1273855584583798e+00 0 0 0
241 2 1.3929221971054993e+01 1.2063142545042187e+01 3.6645400442014489e+00 0 0 0
242 2 1.5093278608638212e+01 1.0025273663202793e+01 5.1046727758418509e-01 0 0 0
243 2 1.0492206669262943e+01 1.4121363545612470e+01 8.9149995601315146e-01 0 0 0
244 2 1.1641988149611192e+01 1.6150303377438803e+01 2.6232616103485538e+00 0 0 0
245 2 9.3450829630498262e+00 1.6151402813462290e+01 1.6335606804480101e+00 0 0 0
246 2 1.0492233647801731e+01 1.4121318776102136e+01 3.3642894809040236e+00 0 0 0
247 2 1.1641948377957954e+01 1.6150351732181637e+01 1.5050159031032573e-01 0 0 0
248 2 1.2787526376021281e+01 1.4113876589372339e+01 1.8903298801663821e+00 0 0 0
249 2 1.5080488807460867e+01 1.4104961368126872e+01 2.8593558703739110e+00 0 0 0
250 2 1.3935710028525438e+01 1.6150117690992420e+01 1.1298787073720165e+00 0 0 0
251 2 1.6230356748712875e+01 1.6150443027994896e+01 2.0753803760618790e+00 0 0 0
252 2 1.3935735077052229e+01 1.6150102020401270e+01 3.6026459499694932e+00 0 0 0
253 2 1.5080487825452217e+01 1.4104972805370750e+01 3.8658711055659339e-01 0 0 0
255 2 1.1638524655193901e+01 1.2086535565822194e+01 5.1257770435487018e+00 0 0 0
256 2 9.3427318066810887e+00 1.2088061447534367e+01 4.0750474158475933e+00 0 0 0
257 2 1.0488668314353779e+01 1.0062858384153820e+01 5.8373578211578732e+00 0 0 0
259 2 9.3426331618997960e+00 1.2087988755884956e+01 6.5478160348242334e+00 0 0 0
262 2 1.2775358472721274e+01 1.0027382987712059e+01 4.4992217576859534e+00 0 0 0
263 2 1.5093258337817298e+01 1.0025279311911421e+01 5.4560041548248597e+00 0 0 0
264 2 1.6238093755488904e+01 1.2067032322525959e+01 4.6001554791392758e+00 0 0 0
265 2 1.2775431174319023e+01 1.0027434770115008e+01 6.9719967923241439e+00 0 0 0
266 2 1.6238100628303364e+01 1.2067034792494107e+01 7.0729308907331037e+00 0 0 0
267 2 1.3929245559151116e+01 1.2063175522280957e+01 6.1373127973859507e+00 0 0 0
254 2 9.3450251927599233e+00 1.6151296927761582e+01 6.5791406861775226e+00 0 0 0
258 2 1.0492193420008860e+01 1.4121291525817830e+01 5.8370756742169805e+00 0 0 0
260 2 9.3450834919853385e+00 1.6151316503690420e+01 4.1063488093631912e+00 0 0 0
261 2 1.1641974136012742e+01 1.6150289315288408e+01 5.0960486336836901e+00 0 0 0
227 2 1.6230359394297789e+01 1.6150448354584437e+01 7.0209293978173326e+00 0 0 0
231 2 1.3935722977080326e+01 1.6150129749813587e+01 6.0754267898845127e+00 0 0 0
232 2 1.2787538652642739e+01 1.4113925140425581e+01 6.8358723095336700e+00 0 0 0
233 2 1.6230367012709952e+01 1.6150445441648760e+01 4.5481535572672573e+00 0 0 0
239 2 1.5080496095820346e+01 1.4104979698707066e+01 5.3321304594906902e+00 0 0 0
240 2 1.2787546641914027e+01 1.4113890484801690e+01 4.3630993120403234e+00 0 0 0
268 2 1.0494640909223483e+01 1.8179815463848069e+01 8.9284941133391804e-01 0 0 0
269 2 1.0494723900921691e+01 1.8179677218540494e+01 3.3655812378531693e+00 0 0 0
270 2 1.2790074623511815e+01 1.8186274838543106e+01 1.8913584154112788e+00 0 0 0
271 2 1.5082734088107017e+01 1.8195543218091689e+01 2.8605773575505573e+00 0 0 0
272 2 1.5082729137609492e+01 1.8195552220744155e+01 3.8781201267786641e-01 0 0 0
273 2 1.0495423732206575e+01 2.2236301303784831e+01 8.9411206720482983e-01 0 0 0
274 2 1.1643534318342978e+01 2.0213339348962670e+01 2.6550292546554548e+00 0 0 0
275 2 9.3470320044503090e+00 2.0212746175368320e+01 1.6058570791757807e+00 0 0 0
278 2 1.0495598599636610e+01 2.2236055823904834e+01 3.3668472397297355e+00 0 0 0
279 2 1.1643527230419638e+01 2.0213398898186121e+01 1.8231472309759475e-01 0 0 0
282 2 1.2781830001095951e+01 2.2272535134799519e+01 2.0297411324725250e+00 0 0 0
283 2 1.3933745429888495e+01 2.0237139711592793e+01 1.1940499823622359e+00 0 0 0
284 2 1.5099193898207552e+01 2.2275341277201623e+01 2.9867278091531047e+00 0 0 0
285 2 1.6242152518485014e+01 2.0233924257556044e+01 2.1298746620795819e+00 0 0 0
288 2 1.3933759159864424e+01 2.0237107988893364e+01 3.6668087341254139e+00 0 0 0
289 2 1.5099235119782506e+01 2.2275325761131626e+01 5.1396093740831461e-01 0 0 0
290 2 1.0494694071379650e+01 1.8179673209056372e+01 5.8383883375080572e+00 0 0 0
291 2 1.2790117807751530e+01 1.8186220391418399e+01 4.3641268097449126e+00 0 0 0
292 2 1.5082748212944470e+01 1.8195543233770433e+01 5.3333545881939655e+00 0 0 0
293 2 1.2790076824855781e+01 1.8186287011371014e+01 6.8369209420821679e+00 0 0 0
294 2 1.1643647813803776e+01 2.0213216361701420e+01 5.1278049677480517e+00 0 0 0
295 2 9.3472756920945201e+00 2.0212362825552283e+01 4.0784988115848755e+00 0 0 0
296 2 9.3472074397005418e+00 2.0212437998038361e+01 6.5513728510418217e+00 0 0 0
297 2 1.0495849205215016e+01 2.2235830433757904e+01 5.8396087073852678e+00 0 0 0
276 2 1.6242171196904060e+01 2.0233914891153887e+01 7.0754223774870733e+00 0 0 0
277 2 1.3933787851456124e+01 2.0237112921333974e+01 6.1395969166700173e+00 0 0 0
280 2 1.2781926041287820e+01 2.2272498424376138e+01 6.9752955209822813e+00 0 0 0
281 2 1.6242163820680023e+01 2.0233913671805706e+01 4.6026423778591461e+00 0 0 0
286 2 1.5099235104450253e+01 2.2275313122129820e+01 5.4594939547627837e+00 0 0 0
287 2 1.2781903368876907e+01 2.2272464464118855e+01 4.5024961857168044e+00 0 0 0
298 2 1.0497218257700775e+01 2.6307745138923543e+01 2.1367356990426183e+00 0 0 0
340 2 1.1661805337224989e+01 2.4294068057711854e+01 2.9658831437740520e+00 0 0 0
344 2 1.1661946931025513e+01 2.4294007536359238e+01 4.9318122849938884e-01 0 0 0
345 2 9.3316311185934318e+00 2.4292699545226753e+01 1.3047835157589112e+00 0 0 0
299 2 1.2868793634944179e+01 2.6322057118776709e+01 7.1456876624873863e-02 0 0 0
300 2 1.5200509414333661e+01 2.6312488791057547e+01 8.0059560100175797e-01 0 0 0
301 2 1.2868464799796980e+01 2.6322144938436221e+01 2.5442514804268472e+00 0 0 0
302 2 1.5200359551387388e+01 2.6312550620579991e+01 3.2733713309209440e+00 0 0 0
348 2 1.3972047396858029e+01 2.4308337340700689e+01 1.4417529329739853e+00 0 0 0
349 2 1.6308207907284860e+01 2.4288499402290793e+01 2.3033528609006577e+00 0 0 0
303 2 1.1684934336286952e+01 2.8289277697070780e+01 1.1892230887510640e+00 0 0 0
304 2 9.3140779892692276e+00 2.8287039967715589e+01 6.2041335748762283e-01 0 0 0
305 2 1.0501437077695854e+01 3.0287698461696181e+01 2.1444054615488817e+00 0 0 0
306 2 9.3128540079516871e+00 2.8287340871614344e+01 3.0930782125213949e+00 0 0 0
318 2 1.1684375480905652e+01 2.8289505329105666e+01 3.6620436764350059e+00 0 0 0
328 2 1.1679693342419476e+01 3.2302186799688968e+01 1.2376955970729862e+00 0 0 0
329 2 9.3200775927347799e+00 3.2301617652026302e+01 5.7934512382573611e-01 0 0 0
330 2 9.3254092065287377e+00 3.2300409395783689e+01 3.0541006514402222e+00 0 0 0
334 2 1.1681324969972694e+01 3.2301940964212328e+01 3.7111109667415310e+00 0 0 0
307 2 1.2863673712583056e+01 3.0300675737978555e+01 3.1673446236039315e-01 0 0 0
308 2 1.5229661305348342e+01 3.0312773569026117e+01 9.9200085181040865e-01 0 0 0
309 2 1.6398174889885450e+01 2.8310349518503187e+01 5.6403284316493357e-02 0 0 0
310 2 1.2864162980155569e+01 3.0300462748253757e+01 2.7896214363874088e+00 0 0 0
311 2 1.4049568124763539e+01 2.8319958992743118e+01 1.8102960827904291e+00 0 0 0
312 2 1.6398225722811965e+01 2.8310316990294819e+01 2.5291953854978040e+00 0 0 0
323 2 1.5229834946706669e+01 3.0312749179837791e+01 3.4648209625810988e+00 0 0 0
331 2 1.6409469389408134e+01 3.2303408990962048e+01 1.3213188471882845e-01 0 0 0
332 2 1.4044212172331674e+01 3.2302955961925043e+01 1.9053070218557711e+00 0 0 0
333 2 1.6409605054314060e+01 3.2303411645976183e+01 2.6049073080520020e+00 0 0 0
313 2 1.0497944492943914e+01 2.6307569658839736e+01 7.0820907734889049e+00 0 0 0
314 2 1.0497166574257898e+01 2.6307516016076345e+01 4.6094717007819952e+00 0 0 0
343 2 9.3317450062244411e+00 2.4291993524487914e+01 3.7774635516084789e+00 0 0 0
350 2 1.1662043116580241e+01 2.4293974392287506e+01 5.4386120766923796e+00 0 0 0
351 2 9.3323848976421431e+00 2.4291531829526313e+01 6.2504207433905306e+00 0 0 0
315 2 1.2868397003171344e+01 2.6322247848389615e+01 5.0170363344169706e+00 0 0 0
316 2 1.5200373349899387e+01 2.6312545669391007e+01 5.7461097320804591e+00 0 0 0
341 2 1.6308242738657821e+01 2.4288470331193466e+01 7.2488865965976768e+00 0 0 0
342 2 1.3972090596504556e+01 2.4308305677507022e+01 6.3872791676543139e+00 0 0 0
346 2 1.6308188463007600e+01 2.4288498801189725e+01 4.7761118612178928e+00 0 0 0
347 2 1.3971976340791141e+01 2.4308367793642297e+01 3.9145115055795130e+00 0 0 0
317 2 1.0500055085372253e+01 3.0288441682482098e+01 7.0897346979984501e+00 0 0 0
319 2 1.0500290451990812e+01 3.0288302395086113e+01 4.6172574679202265e+00 0 0 0
320 2 1.1684491433582114e+01 2.8289741610132349e+01 6.1347581598357959e+00 0 0 0
321 2 9.3131059241103316e+00 2.8287159181166619e+01 5.5656764842892281e+00 0 0 0
336 2 1.1678929902997131e+01 3.2302318452387610e+01 6.1833416248659345e+00 0 0 0
338 2 9.3185186364810715e+00 3.2300688806476906e+01 5.5253632149114900e+00 0 0 0
322 2 1.4049419115361884e+01 2.8320099984436361e+01 6.7558035061127590e+00 0 0 0
324 2 1.2863709229734997e+01 3.0300850520447153e+01 5.2624013907052918e+00 0 0 0
325 2 1.4049335527306727e+01 2.8320125504111150e+01 4.2830691270529249e+00 0 0 0
326 2 1.5229659297666869e+01 3.0312845622579399e+01 5.9375873500901042e+00 0 0 0
327 2 1.6398135559859195e+01 2.8310369085148661e+01 5.0019592473824543e+00 0 0 0
335 2 1.6409747800406645e+01 3.2303396326313845e+01 5.0777452745785823e+00 0 0 0
337 2 1.4044699329212659e+01 3.2302960768411722e+01 4.3782861926853558e+00 0 0 0
339 2 1.4043882691789420e+01 3.2303002311306386e+01 6.8508626082388933e+00 0 0 0
353 2 1.9924506666393668e+01 2.0125106389834264e+00 3.0489244641613636e-02 0 0 0
354 2 1.8733584985532744e+01 4.0142233418488660e+00 8.2682697157334140e-01 0 0 0
355 2 1.7580715590083507e+01 1.9986233094835226e+00 1.7205337982976163e+00 0 0 0
356 2 1.9924490351709032e+01 2.0125197821543956e+00 2.5032540896844573e+00 0 0 0
357 2 1.8733576064716623e+01 4.0142349395392527e+00 3.2995977744505613e+00 0 0 0
358 2 2.2256497700678278e+01 2.0264181237732610e+00 8.5538282240094099e-01 0 0 0
362 2 2.2256503916785757e+01 2.0264214854032789e+00 3.3281537490636892e+00 0 0 0
363 2 2.4576290626733641e+01 2.0389841239012587e+00 1.7214540989397296e+00 0 0 0
368 2 1.7526866275411678e+01 6.0121861816813933e+00 1.5877590878793211e+00 0 0 0
369 2 1.9863560764579073e+01 6.0424295309280751e+00 2.4044392164684467e+00 0 0 0
385 2 1.8639992165893737e+01 8.0422275321129373e+00 6.7105718049650831e-01 0 0 0
386 2 1.8639989134713179e+01 8.0422216799229176e+00 3.1438340196984149e+00 0 0 0
360 2 2.3399888851420084e+01 4.0634001442239436e+00 1.2550774023238547e-02 0 0 0
365 2 2.1070063588357097e+01 4.0392429962479390e+00 1.6397443985265787e+00 0 0 0
366 2 2.3399913392444446e+01 4.0633982355515981e+00 2.4853300822064179e+00 0 0 0
370 2 2.2199614927230741e+01 6.0736830600890697e+00 7.6705078134008708e-01 0 0 0
371 2 2.2199627664702589e+01 6.0736821601898443e+00 3.2398263338174629e+00 0 0 0
372 2 2.4533690389613646e+01 6.1031616815189933e+00 1.6233630155403720e+00 0 0 0
387 2 2.0978882953990606e+01 8.0753302394308619e+00 1.5110089668823155e+00 0 0 0
373 2 1.7580777955757259e+01 1.9985974431287912e+00 6.6661045612306431e+00 0 0 0
375 2 1.7580769741081916e+01 1.9986281063105664e+00 4.1933136136401554e+00 0 0 0