LAMMPS data file via write_data, version 11 Aug 2017, timestep = 1000

2353 atoms
2 atom types

0.0000000000000000e+00 5.6532297332691002e+01 xlo xhi
0.0000000000000000e+00 5.6532297332691002e+01 ylo yhi
0.0000000000000000e+00 8.5659366000000006e+00 zlo zhi

Masses

1 12.0107
2 55.845

Atoms # atomic

1 2 1.0010330216103867e+00 1.3639880263941933e+00 1.0948805339256062e+00 0 0 0
3 2 3.0790895309354993e+00 1.3937829126586543e+00 2.2147147867427837e+00 0 0 0
4 2 9.9309581296740324e-01 3.4355951525468047e+00 2.2276568679529620e+00 0 0 0
5 2 3.0092233721026362e+00 3.4130345242400328e+00 7.8713988920044242e-01 0 0 0
7 2 9.9951358171923688e-01 1.3571389476694895e+00 3.5966567746031854e+00 0 0 0
9 2 3.0282671033529227e+00 3.4316621823352325e+00 3.6216187050786321e+00 0 0 0
2353 1 9.9917112558742693e-01 1.3549575852371012e+00 7.8796073778805455e+00 0 0 -1
2 2 5.0318699473743793e+00 1.4525935361672098e+00 7.3353943553618461e-01 0 0 0
6 2 5.0371821315008507e+00 3.4744686496172954e+00 2.2014239613536288e+00 0 0 0
8 2 5.0829829566636091e+00 1.4510733138978342e+00 3.5998291225867436e+00 0 0 0
10 2 9.0763505748762743e+00 1.5904258585342248e+00 7.4130873939296005e-01 0 0 0
11 2 7.0638351676542630e+00 1.5190712348765476e+00 2.1618177686584130e+00 0 0 0
12 2 7.0401651540304480e+00 3.5407483104669222e+00 7.7506412977835659e-01 0 0 0
13 2 9.0575765742094720e+00 3.6100858994008056e+00 2.2089523627298857e+00 0 0 0
14 2 9.0735373074549148e+00 1.5909572323200969e+00 3.5998681735804756e+00 0 0 0
15 2 7.0489531902617868e+00 3.5387298677389336e+00 3.6353228387984888e+00 0 0 0
16 2 1.3109051987153880e+01 1.7378827851549097e+00 7.4384207656935020e-01 0 0 0
17 2 1.1090684352402906e+01 1.6639613365069128e+00 2.1717440116063598e+00 0 0 0
18 2 1.1073816415073999e+01 3.6827359430953548e+00 7.8543782536156059e-01 0 0 0
19 2 1.3090368199855741e+01 3.7559519394208229e+00 2.2140329796094056e+00 0 0 0
20 2 1.3108283486345661e+01 1.7379238090489098e+00 3.5987485466185754e+00 0 0 0
21 2 1.1072311418868075e+01 3.6826807750069248e+00 3.6411675802580872e+00 0 0 0
22 2 9.8885079174787582e-01 5.3826917319251670e+00 7.5774314819307920e-01 0 0 0
24 2 3.0013541453831420e+00 5.4443639978299965e+00 2.2174204231910792e+00 0 0 0
25 2 9.8748161944842194e-01 5.4339483857513935e+00 3.6254485072442670e+00 0 0 0
34 2 9.7824984491418998e-01 7.4080368275326780e+00 2.2048113495325707e+00 0 0 0
35 2 2.9836936756956818e+00 7.4512531612792108e+00 8.1444831951781116e-01 0 0 0
40 2 2.9810693979297986e+00 7.4596006037787559e+00 3.6751300612467581e+00 0 0 0
23 2 5.0099574898184693e+00 5.4936888586145294e+00 8.0599016094801490e-01 0 0 0
26 2 5.0126747754873637e+00 5.4964085372257188e+00 3.6615196978772788e+00 0 0 0
27 2 9.0325718285466703e+00 5.6309710797376944e+00 8.2449055751074651e-01 0 0 0
28 2 7.0217842510848447e+00 5.5605533948236108e+00 2.2446958676995807e+00 0 0 0
29 2 9.0333263716217367e+00 5.6298909534004666e+00 3.6803270243447743e+00 0 0 0
38 2 4.9844802215524933e+00 7.5174399559131073e+00 2.2701417672792288e+00 0 0 0
30 2 1.3063837030815444e+01 5.7738668980510957e+00 8.3073804730024192e-01 0 0 0
31 2 1.1046865460530670e+01 5.7016610640466814e+00 2.2567383049624343e+00 0 0 0
32 2 1.3063537855941671e+01 5.7739015198406038e+00 3.6860497731003017e+00 0 0 0
33 2 9.6078377911150636e-01 9.4118971652664030e+00 8.1152537636844202e-01 0 0 0
37 2 2.9518050130329612e+00 9.4739446051586818e+00 2.2829851557199219e+00 0 0 0
39 2 9.6114931774719659e-01 9.4088014875087964e+00 3.6703644024947844e+00 0 0 0
36 2 4.9429591235705441e+00 9.5418732341632406e+00 8.8677097159390861e-01 0 0 0
41 2 4.9417173088287321e+00 9.5424621522457223e+00 3.7426405192186820e+00 0 0 0
42 2 6.9887587502176407e+00 7.5835934102934868e+00 8.5956721331539487e-01 0 0 0
43 2 8.9357604261072261e+00 9.6749694087543539e+00 9.1949444636809041e-01 0 0 0
44 2 6.9361081852585924e+00 9.6086920356619050e+00 2.3347785697186749e+00 0 0 0
45 2 8.9954991394781789e+00 7.6517183144535101e+00 2.2975874490495758e+00 0 0 0
46 2 6.9884943217999540e+00 7.5832953436240613e+00 3.7143969048895884e+00 0 0 0
47 2 8.9357244976659747e+00 9.6749086762953844e+00 3.7745259205761901e+00 0 0 0
48 2 1.1006175556320029e+01 7.7215079551758627e+00 8.7589679455266034e-01 0 0 0
49 2 1.2954078209633920e+01 9.8097642923792048e+00 9.2947479930343946e-01 0 0 0
50 2 1.0941615374428872e+01 9.7418870239519748e+00 2.3541058846060339e+00 0 0 0
51 2 1.3021456857270852e+01 7.7918369544132915e+00 2.3058823972783280e+00 0 0 0
52 2 1.1006314322610637e+01 7.7212806440662147e+00 3.7311627954939999e+00 0 0 0
53 2 1.2954131325567834e+01 9.8097391718856315e+00 3.7847866450335634e+00 0 0 0
54 2 3.0784617199482605e+00 1.3923616740512617e+00 4.9834190593266694e+00 0 0 0
55 2 9.9253352643436099e-01 3.4323343629668015e+00 4.9960585546034775e+00 0 0 0
57 2 9.9864430999332132e-01 1.3509611222827167e+00 6.0984347714374776e+00 0 0 0
59 2 2.9766888789927504e+00 1.3954679870029651e+00 7.8820360738680311e+00 0 0 0
60 2 9.9552403525836786e-01 3.3310503105523885e+00 7.8943866313738331e+00 0 0 0
61 2 3.0088236859689128e+00 3.4117778969186237e+00 6.4548593540943475e+00 0 0 0
56 2 5.0370833945066087e+00 3.4741766980240980e+00 5.0574871580105443e+00 0 0 0
58 2 5.0316706612346245e+00 1.4528398269927629e+00 6.4658338817713785e+00 0 0 0
62 2 5.0130589247444437e+00 3.4723846541550327e+00 7.9121093894733550e+00 0 0 0
63 2 7.0637927701478223e+00 1.5195054512652717e+00 5.0381475725333402e+00 0 0 0
64 2 9.0576255353161450e+00 3.6103019645631163e+00 5.0693336685970243e+00 0 0 0
65 2 9.0763333510318596e+00 1.5906524723166404e+00 6.4583982458350118e+00 0 0 0
66 2 7.0553947293527290e+00 1.5192324635606584e+00 7.8829010900588452e+00 0 0 0
67 2 7.0402035536804668e+00 3.5409835433972421e+00 6.4954640741155396e+00 0 0 0
68 2 9.0575738159201009e+00 3.6111168624109413e+00 7.9221255515278468e+00 0 0 0
69 2 1.1090671317855675e+01 1.6640259384183185e+00 5.0272017436741310e+00 0 0 0
70 2 1.3090365927558681e+01 3.7559583767386813e+00 5.0689334350429291e+00 0 0 0
71 2 1.3109049084278144e+01 1.7378825498472541e+00 6.4536382059061737e+00 0 0 0
72 2 1.1093111329835526e+01 1.6637818191191931e+00 7.8824306594538989e+00 0 0 0
73 2 1.1073835150478162e+01 3.6828146808187832e+00 6.4969358602386134e+00 0 0 0
74 2 1.3091122678339055e+01 3.7558688614227886e+00 7.9244587930199959e+00 0 0 0
75 2 3.0014291857385085e+00 5.4437864667339628e+00 5.0740308336254349e+00 0 0 0
76 2 9.8920701692996293e-01 5.3814927869820535e+00 6.4905407875390280e+00 0 0 0
78 2 3.0000030869440577e+00 5.4200430568249391e+00 7.9278310001870356e+00 0 0 0
85 2 9.7871626975887049e-01 7.4076395846065966e+00 5.0818132537169340e+00 0 0 0
89 2 9.7858657370672530e-01 7.3992778443074734e+00 7.9257931377712065e+00 0 0 0
90 2 2.9839800938068310e+00 7.4510401320311175e+00 6.5349988319107348e+00 0 0 0
77 2 5.0101238185206123e+00 5.4935027807695791e+00 6.5165777756187122e+00 0 0 0
79 2 7.0218879692326706e+00 5.5606062743081059e+00 5.1008835826447800e+00 0 0 0
80 2 9.0326227570418176e+00 5.6310805053292805e+00 6.5362859291936681e+00 0 0 0
81 2 7.0195140080176976e+00 5.5620233171212714e+00 7.9557691444679648e+00 0 0 0
87 2 4.9846683636691678e+00 7.5173888195429388e+00 5.1263006909269144e+00 0 0 0
93 2 4.9863052750682213e+00 7.5151819363401433e+00 7.9810245048312316e+00 0 0 0
82 2 1.1046877382363077e+01 5.7017198043111037e+00 5.1125844444205084e+00 0 0 0
83 2 1.3063831942773831e+01 5.7738790891472425e+00 6.5413827082910405e+00 0 0 0
84 2 1.1047077472399664e+01 5.7019945493748931e+00 7.9676667207592438e+00 0 0 0
86 2 2.9520144410946494e+00 9.4739164480089091e+00 5.1432720776755598e+00 0 0 0
88 2 9.6103150448367525e-01 9.4118392282689474e+00 6.5290285953729077e+00 0 0 0
92 2 2.9531313715916152e+00 9.4741526431853664e+00 7.9960247585125828e+00 0 0 0
91 2 4.9430833628768864e+00 9.5418908215958158e+00 6.5984297215516676e+00 0 0 0
94 2 6.9361775849058471e+00 9.6087049674080500e+00 5.1895768803545907e+00 0 0 0
95 2 8.9955471992390699e+00 7.6517520553946321e+00 5.1524377288609449e+00 0 0 0
96 2 6.9888894194345834e+00 7.5836179019352183e+00 6.5692676822864007e+00 0 0 0
97 2 8.9357839105028098e+00 9.6749708027569881e+00 6.6296311054815842e+00 0 0 0
98 2 6.9367181110206628e+00 9.6085476328808568e+00 8.0451670643717392e+00 0 0 0
99 2 8.9953211461349891e+00 7.6522871538468014e+00 8.0080497556792789e+00 0 0 0
100 2 1.0941613344233799e+01 9.7418854625225446e+00 5.2092629147003429e+00 0 0 0
101 2 1.3021446635325001e+01 7.7918434804341947e+00 5.1612638308868535e+00 0 0 0
102 2 1.1006176505664996e+01 7.7215291975366203e+00 6.5865111034059352e+00 0 0 0
103 2 1.2954070642265879e+01 9.8097637464073468e+00 6.6401112421934716e+00 0 0 0
104 2 1.0941520529202446e+01 9.7419570588145525e+00 8.0646755925391282e+00 0 0 0
105 2 1.3021447762031940e+01 7.7918657446393880e+00 8.0165519126406757e+00 0 0 0
106 2 8.6350167402420797e-01 1.3428675180576059e+01 9.3311581484470330e-01 0 0 0
107 2 9.2695472974838944e-01 1.1416420377055976e+01 2.2855652433101561e+00 0 0 0
108 2 2.8965252374696937e+00 1.1501223836167430e+01 9.1047032169434483e-01 0 0 0
110 2 2.7677365582964075e+00 1.3541814155752494e+01 2.4198447147762123e+00 0 0 0
112 2 8.6372138015563615e-01 1.3427444226976119e+01 3.7877316635137777e+00 0 0 0
113 2 2.8964212822092086e+00 1.1499495399385028e+01 3.7660602016599189e+00 0 0 0
109 2 4.7155527019326051e+00 1.3607242475077536e+01 1.0172245351650517e+00 0 0 0
111 2 4.8672318982776241e+00 1.1573127880547984e+01 2.3709533419296043e+00 0 0 0
114 2 4.7156527787983720e+00 1.3607003890980318e+01 3.8725065370958252e+00 0 0 0
115 2 6.8481421799900817e+00 1.1636920804883353e+01 9.6314946832838255e-01 0 0 0
116 2 8.6881864852544410e+00 1.3720128520666366e+01 1.0358703541949807e+00 0 0 0
117 2 6.6934927396404440e+00 1.3663095524599358e+01 2.4568755548190899e+00 0 0 0
118 2 8.8394511126424860e+00 1.1699294443488659e+01 2.4024302246902369e+00 0 0 0
119 2 6.8479409686775901e+00 1.1637034750440185e+01 3.8184209796097823e+00 0 0 0
120 2 8.6881667924968529e+00 1.3720178261448513e+01 3.8912021912842985e+00 0 0 0
121 2 1.0840519485295406e+01 1.1762421126699559e+01 9.8134725050395755e-01 0 0 0
122 2 1.2703142668043604e+01 1.3841200803773637e+01 1.0425721863924771e+00 0 0 0
123 2 1.0692539470796945e+01 1.3779722068491418e+01 2.4676190109802105e+00 0 0 0
124 2 1.2850214080036571e+01 1.1826829030172053e+01 2.4121818982102257e+00 0 0 0
125 2 1.0840539409889461e+01 1.1762437788723886e+01 3.8366175213523879e+00 0 0 0
126 2 1.2703145524871333e+01 1.3841203580808031e+01 3.8978830413882144e+00 0 0 0
127 2 1.0141553235115244e-01 1.7482240476790189e+01 1.2834163539882806e+00 0 0 0
128 2 2.3650172697394454e+00 1.5541441829209621e+01 1.1224151334040584e+00 0 0 0
129 2 4.2532946084078249e+00 1.7609712895374898e+01 1.1814669870943131e+00 0 0 0
130 2 2.4670501247316795e-01 1.5489580602415927e+01 2.6343857102120154e+00 0 0 0
131 2 2.1891574685597455e+00 1.7541350911977720e+01 2.6402063726417784e+00 0 0 0
132 2 1.0135786886341837e-01 1.7482432582578252e+01 4.1385845009805786e+00 0 0 0
133 2 2.3649309573323971e+00 1.5541377380030392e+01 3.9774794936563964e+00 0 0 0
134 2 4.4278186619313900e+00 1.5611290974960234e+01 2.5332169673118323e+00 0 0 0
135 2 4.2533068350876562e+00 1.7609727157636978e+01 4.0367498520335419e+00 0 0 0
136 2 6.4674666763057944e+00 1.5671638956797187e+01 1.1004724985020360e+00 0 0 0
137 2 8.3397551312771441e+00 1.7738415303064563e+01 1.1604152343304603e+00 0 0 0
138 2 6.3025936506128462e+00 1.7674802237184316e+01 2.5946213681650034e+00 0 0 0
139 2 6.4675026394414896e+00 1.5671621164253947e+01 3.9558067616677657e+00 0 0 0
140 2 8.4953734422426699e+00 1.5730899111679534e+01 2.5269587646491245e+00 0 0 0
141 2 8.3397617224372969e+00 1.7738410943439160e+01 4.0157379406773330e+00 0 0 0
142 2 1.0516335308722640e+01 1.5791461040458787e+01 1.0999392092720246e+00 0 0 0
143 2 1.2385558390217307e+01 1.7867163858917319e+01 1.1597100960260713e+00 0 0 0
144 2 1.0366968619949231e+01 1.7802419766987295e+01 2.5861247382538819e+00 0 0 0
145 2 1.0516330985952935e+01 1.5791469432153912e+01 3.9552611983327388e+00 0 0 0
146 2 1.2532208038496744e+01 1.5853272020147584e+01 2.5294026722419161e+00 0 0 0
147 2 1.2385556541756316e+01 1.7867164486681371e+01 4.0150230055677492e+00 0 0 0
148 2 2.6816814735494753e-02 2.1525352758558768e+01 1.3641537631931575e+00 0 0 0
149 2 2.1055648142172241e+00 1.9551550024488723e+01 1.2771187202559982e+00 0 0 0
150 2 4.1039093792666925e+00 2.1626907542343428e+01 1.2936743882341915e+00 0 0 0
151 2 4.8505995099307225e-02 1.9500530396134884e+01 2.7624320232638593e+00 0 0 0
152 2 2.0659975178717485e+00 2.1567869352297475e+01 2.7493559456204490e+00 0 0 0
153 2 2.6813303930278257e-02 2.1525364100473514e+01 4.2194629278715832e+00 0 0 0
154 2 2.1055571062721654e+00 1.9551607764600835e+01 4.1324102663276969e+00 0 0 0
155 2 4.1561592509909664e+00 1.9615761527128562e+01 2.6717440829823871e+00 0 0 0
156 2 4.1039054789269613e+00 2.1626917278603628e+01 4.1489894564119316e+00 0 0 0
157 2 6.1993047795029845e+00 1.9681745008853969e+01 1.2260747304398858e+00 0 0 0
158 2 8.1694467253138505e+00 2.1760247259252843e+01 1.2679289844058625e+00 0 0 0
159 2 6.1388686887538784e+00 2.1692241270831680e+01 2.7044998033803362e+00 0 0 0
160 2 6.1993075910521744e+00 1.9681746879794751e+01 4.0813878095945233e+00 0 0 0
161 2 8.2345789943488992e+00 1.9748196813950106e+01 2.6446360619387823e+00 0 0 0
162 2 8.1694469009313462e+00 2.1760246817955647e+01 4.1232407332877763e+00 0 0 0
163 2 1.0262081415216910e+01 1.9815411974000821e+01 1.2136763594092017e+00 0 0 0
164 2 1.2215671408475499e+01 2.1900272070565045e+01 1.2656083556378972e+00 0 0 0
165 2 1.0195063325089121e+01 2.1829770053277802e+01 2.6922913172381060e+00 0 0 0
166 2 1.0262082116885551e+01 1.9815410143145812e+01 4.0689896530945404e+00 0 0 0
167 2 1.2282238371534692e+01 1.9883418055721545e+01 2.6422572239039415e+00 0 0 0
168 2 1.2215671595432624e+01 2.1900271724612335e+01 4.1209204728470787e+00 0 0 0
169 2 9.2704917532917142e-01 1.1416508656420866e+01 5.1411066429165553e+00 0 0 0
170 2 2.7677486543708207e+00 1.3541914890087211e+01 5.2746586390624781e+00 0 0 0
172 2 8.6360719282069753e-01 1.3428737865468177e+01 6.6425466027470845e+00 0 0 0
173 2 9.2688314350520418e-01 1.1419389643772019e+01 7.9963819281334354e+00 0 0 0
174 2 2.8965986495048059e+00 1.1501234911049993e+01 6.6218266637858658e+00 0 0 0
176 2 2.7673949629180199e+00 1.3542810964599726e+01 8.1303363029580691e+00 0 0 0
171 2 4.8672516856465684e+00 1.1573139010658583e+01 5.2266445305215061e+00 0 0 0
175 2 4.7155056408343334e+00 1.3607254566262359e+01 6.7278765542621946e+00 0 0 0
177 2 4.8675359838926182e+00 1.1573400446727122e+01 8.0818064756707493e+00 0 0 0
178 2 6.6934629354662221e+00 1.3663084649560680e+01 5.3122637097671266e+00 0 0 0
179 2 8.8394473652138430e+00 1.1699285433417458e+01 5.2575939422148039e+00 0 0 0
180 2 6.8481424713004344e+00 1.1636919948953452e+01 6.6737221411085672e+00 0 0 0
181 2 8.6881777224835819e+00 1.3720119362264114e+01 6.7465163432819129e+00 0 0 0
182 2 6.6934724171876256e+00 1.3663075119050891e+01 8.1675363905927476e+00 0 0 0
183 2 8.8395015556040253e+00 1.1699203377113319e+01 8.1129872869959101e+00 0 0 0
184 2 1.0692538950955180e+01 1.3779717487814622e+01 5.3229259107756501e+00 0 0 0
185 2 1.2850211428438310e+01 1.1826826345355162e+01 5.2674838658724141e+00 0 0 0
186 2 1.0840515452191172e+01 1.1762413720809446e+01 6.6918934677177679e+00 0 0 0
187 2 1.2703143533510239e+01 1.3841199557023200e+01 6.7531910821752410e+00 0 0 0
188 2 1.0692544196870545e+01 1.3779693514567017e+01 8.1782358606568604e+00 0 0 0
189 2 1.2850186159860083e+01 1.1826832783597109e+01 8.1228015779059302e+00 0 0 0
190 2 2.4727581902109472e-01 1.5489975321502229e+01 8.3445307824855171e+00 0 0 0
191 2 2.1891681173279922e+00 1.7541320759547919e+01 8.3507942153765633e+00 0 0 0
192 2 4.4277202491265957e+00 1.5611363363150137e+01 8.2437727355725947e+00 0 0 0
193 2 2.4660763923969503e-01 1.5489962456832131e+01 5.4892262519347295e+00 0 0 0
194 2 2.1891397142396687e+00 1.7541400100314569e+01 5.4953939158367531e+00 0 0 0
195 2 1.0137135140356675e-01 1.7482435872065178e+01 6.9938950178457091e+00 0 0 0
196 2 2.3649097340859289e+00 1.5541562187259016e+01 6.8325865197436491e+00 0 0 0
197 2 4.4277790606007210e+00 1.5611291774049853e+01 5.3884015663178113e+00 0 0 0
198 2 4.2532780327018065e+00 1.7609717294334718e+01 6.8920324278890357e+00 0 0 0
199 2 6.3025695674531175e+00 1.7674808501059843e+01 8.3052383581889941e+00 0 0 0
200 2 8.4953676529792599e+00 1.5730888120894610e+01 8.2375937172665132e+00 0 0 0
201 2 6.3025868486656478e+00 1.7674802132985697e+01 5.4499305478675275e+00 0 0 0
202 2 6.4674560389440581e+00 1.5671632718343407e+01 6.8111197390707767e+00 0 0 0
203 2 8.4953727203182883e+00 1.5730896073500368e+01 5.3823061223324471e+00 0 0 0
204 2 8.3397549220883054e+00 1.7738415927549031e+01 6.8710529315400484e+00 0 0 0
205 2 1.0366970598008379e+01 1.7802420950109305e+01 8.2967520436583744e+00 0 0 0
206 2 1.2532212158904734e+01 1.5853269440227990e+01 8.2400266342913220e+00 0 0 0
207 2 1.0366969976479115e+01 1.7802420455713733e+01 5.4414451556657975e+00 0 0 0
208 2 1.0516336861834718e+01 1.5791460255409483e+01 6.8105771859496063e+00 0 0 0
209 2 1.2532209310106603e+01 1.5853272085488674e+01 5.3847152152438795e+00 0 0 0
210 2 1.2385559276479663e+01 1.7867164215674972e+01 6.8703359971704083e+00 0 0 0
211 2 4.8509541187268732e-02 1.9500471270521206e+01 8.4731233295222790e+00 0 0 0
212 2 2.0659970568575763e+00 2.1567848528153466e+01 8.4599962266810529e+00 0 0 0
213 2 4.1561524182924474e+00 1.9615742467891305e+01 8.3823656394420833e+00 0 0 0
214 2 4.8496280313131628e-02 1.9500556132567155e+01 5.6177523335054085e+00 0 0 0
215 2 2.0659917920514230e+00 2.1567864689706923e+01 5.6046866118369669e+00 0 0 0
216 2 2.6812305661476691e-02 2.1525335993728557e+01 7.0748049746546169e+00 0 0 0
217 2 2.1055516148520379e+00 1.9551560607743784e+01 6.9877402355829199e+00 0 0 0
218 2 4.1561509925458040e+00 1.9615764180115342e+01 5.5270502674324700e+00 0 0 0
219 2 4.1039055252600098e+00 2.1626907348330239e+01 7.0043052515508837e+00 0 0 0
220 2 6.1388687276717135e+00 2.1692239241091592e+01 8.4151232052040914e+00 0 0 0
221 2 8.2345762693675049e+00 1.9748201095349664e+01 8.3552596019395615e+00 0 0 0
222 2 6.1388672971501377e+00 2.1692242131117272e+01 5.5598116381660647e+00 0 0 0
223 2 6.1993018174009302e+00 1.9681746424117041e+01 6.9366958438754907e+00 0 0 0
224 2 8.2345788297449989e+00 1.9748198034010123e+01 5.4999491236456919e+00 0 0 0
225 2 8.1694466136641086e+00 2.1760248006836822e+01 6.9785518685618166e+00 0 0 0
226 2 1.0195063034624075e+01 2.1829771266334735e+01 8.4029154869541536e+00 0 0 0
227 2 1.2282239052247130e+01 1.9883418571181462e+01 8.3528821714877139e+00 0 0 0
228 2 1.0195063496094580e+01 2.1829770412936067e+01 5.5476029347056830e+00 0 0 0
229 2 1.0262081943795883e+01 1.9815412660951626e+01 6.9243025151008162e+00 0 0 0
230 2 1.2282238728722156e+01 1.9883418277330730e+01 5.4975701993271029e+00 0 0 0
231 2 1.2215671512550093e+01 2.1900272155588329e+01 6.9762328152394861e+00 0 0 0
232 2 1.1768704577880412e-02 2.5574094823921616e+01 1.3928751686056202e+00 0 0 0
233 2 2.0464157514734129e+00 2.3586458777763131e+01 1.3530391015568033e+00 0 0 0
234 2 4.0609365453419048e+00 2.5655717201215587e+01 1.3646658005019840e+00 0 0 0
235 2 1.6881375110300283e-02 2.3550718391894144e+01 2.8092366622165685e+00 0 0 0
236 2 2.0361675772348482e+00 2.5604893685893924e+01 2.8040505960116824e+00 0 0 0
237 2 1.1769023359374374e-02 2.5574089907220561e+01 4.2481909700604641e+00 0 0 0
238 2 2.0464141359586310e+00 2.3586457004631118e+01 4.2083563926650065e+00 0 0 0
239 2 4.0761001931678758e+00 2.3640869553829759e+01 2.7604392006843348e+00 0 0 0
240 2 4.0609361860976350e+00 2.5655715989955389e+01 4.2199790897133038e+00 0 0 0
241 2 6.1046414809172838e+00 2.3704961126477528e+01 1.3201110335832142e+00 0 0 0
242 2 8.1081680890717269e+00 2.5788037952971038e+01 1.3545839149770107e+00 0 0 0
243 2 6.0851879180728350e+00 2.5718756022428490e+01 2.7852995535436889e+00 0 0 0
244 2 6.1046400876558504e+00 2.3704962381119525e+01 4.1754236709311874e+00 0 0 0
245 2 8.1308861277846134e+00 2.3773741000258397e+01 2.7411126225645130e+00 0 0 0
246 2 8.1081677918857427e+00 2.5788038257807706e+01 4.2098959859601592e+00 0 0 0
247 2 1.0154241790766966e+01 2.3844786244349326e+01 1.3113742315896875e+00 0 0 0
248 2 1.2149198350716633e+01 2.5933423663143905e+01 1.3570638545043332e+00 0 0 0
249 2 1.0129528729719144e+01 2.5860129376275804e+01 2.7822795695659761e+00 0 0 0
250 2 1.0154241865704513e+01 2.3844786173755843e+01 4.1666860416200899e+00 0 0 0
251 2 1.2174545828357651e+01 2.3916972599858799e+01 2.7405118901290133e+00 0 0 0
252 2 1.2149198387913076e+01 2.5933423666310897e+01 4.2123759818193527e+00 0 0 0
254 2 2.0302622124528447e+00 2.7621777772229471e+01 1.3951728227784239e+00 0 0 0
255 2 4.0454805786895216e+00 2.9683509610439490e+01 1.4172089082352397e+00 0 0 0
256 2 8.8266038186908709e-03 2.7594511508309772e+01 2.8284975460892219e+00 0 0 0
257 2 2.0261357883908340e+00 2.9636420330521890e+01 2.8391840802114223e+00 0 0 0
258 2 2.0302624764597912e+00 2.7621776467066798e+01 4.2504854184908591e+00 0 0 0
259 2 4.0519894459197845e+00 2.7670175449315238e+01 2.8197295463458705e+00 0 0 0
313 2 4.0454806484530437e+00 2.9683509509629790e+01 4.2725205207368289e+00 0 0 0
346 2 6.9626801268513373e-03 2.9611749165852967e+01 1.4068295795137238e+00 0 0 0
350 2 6.9628208008207810e-03 2.9611749364911589e+01 4.2621414312572696e+00 0 0 0
261 2 6.0733019470490568e+00 2.7732828471000207e+01 1.3914238965846633e+00 0 0 0
262 2 8.0824297672757286e+00 2.9817831628028895e+01 1.4296292495155034e+00 0 0 0
263 2 6.0642884144356008e+00 2.9746793693566993e+01 2.8510431359509290e+00 0 0 0
264 2 6.0733019378385382e+00 2.7732828273048977e+01 4.2467361054304735e+00 0 0 0
265 2 8.0937818579560528e+00 2.7802765154405090e+01 2.8204201840243392e+00 0 0 0
266 2 1.0100263165852253e+01 2.9891609504547347e+01 7.9319369828454930e-03 0 0 0
267 2 1.0113405972254537e+01 2.7875709462893134e+01 1.3955564652281551e+00 0 0 0
269 2 1.2118139962472540e+01 2.9966142599474789e+01 1.4409961119931594e+00 0 0 0
270 2 1.0100263175970623e+01 2.9891609547675625e+01 2.8632441591938473e+00 0 0 0
271 2 1.0113405914936054e+01 2.7875709549326157e+01 4.2508686540582321e+00 0 0 0
272 2 1.2132287615766018e+01 2.7949747808119863e+01 2.8269921304826893e+00 0 0 0
274 2 2.0167696231973533e+00 3.3658479933325530e+01 1.5521193753986525e-02 0 0 0
275 2 2.0221211818588856e+00 3.1648607406637165e+01 1.4270350135121490e+00 0 0 0
276 2 4.0387286353409513e+00 3.1695399705651525e+01 1.4345388940941940e-02 0 0 0
277 2 4.0292352982998203e+00 3.3705868994287719e+01 1.4684608595865447e+00 0 0 0
278 2 2.0167696082993674e+00 3.3658481086927374e+01 2.8708334254603485e+00 0 0 0
279 2 4.0387286209834405e+00 3.1695400391047652e+01 2.8696564239126818e+00 0 0 0
332 2 2.0221212571978184e+00 3.1648606805880970e+01 4.2823461908628602e+00 0 0 0
348 2 4.5556302912112484e-03 3.3638265140735072e+01 1.4154811901640270e+00 0 0 0
349 2 5.6382573030119652e-03 3.1626070960352241e+01 2.8392227855644485e+00 0 0 0
353 2 4.5551947626185892e-03 3.3638264086500776e+01 4.2707945484309491e+00 0 0 0
280 2 6.0406100555609203e+00 3.3774992900602115e+01 6.2003608721430965e-02 0 0 0
281 2 6.0545634029101620e+00 3.1760680480775310e+01 1.4554463763982353e+00 0 0 0
282 2 8.0698094463661452e+00 3.1833454476052729e+01 3.9258212853604930e-02 0 0 0
283 2 8.0515216909505529e+00 3.3850220663327164e+01 1.5064837276327430e+00 0 0 0
284 2 6.0406098325946260e+00 3.3774993974546938e+01 2.9173155123649788e+00 0 0 0
285 2 8.0698094989168556e+00 3.1833454621353685e+01 2.8945703819406177e+00 0 0 0
286 2 1.0085312668325328e+01 3.1908090653281661e+01 1.4762627118892129e+00 0 0 0
287 2 1.2101712595071874e+01 3.1982869276894728e+01 5.5814230548724766e-02 0 0 0
288 2 1.4119367370486271e+01 3.2057405880551620e+01 1.4884937947446766e+00 0 0 0
289 2 1.2101712575610780e+01 3.1982869203899710e+01 2.9111264674950257e+00 0 0 0
290 2 1.6880568546442442e-02 2.3550714712762758e+01 8.5198649553124888e+00 0 0 0
291 2 2.0361677471846797e+00 2.5604895300820044e+01 8.5146744109511694e+00 0 0 0
292 2 4.0761014139129834e+00 2.3640867303808644e+01 8.4710659230469787e+00 0 0 0
293 2 1.6880425109461819e-02 2.3550707660047944e+01 5.6645600045364324e+00 0 0 0
294 2 2.0361677925943935e+00 2.5604891788650654e+01 5.6593647250228685e+00 0 0 0
295 2 1.1768596278026200e-02 2.5574092273650827e+01 7.1035007088310778e+00 0 0 0
296 2 2.0464146227036890e+00 2.3586453515383159e+01 7.0636733026953937e+00 0 0 0
297 2 4.0760993242914161e+00 2.3640868459400664e+01 5.6157561983384312e+00 0 0 0
298 2 4.0609367144387232e+00 2.5655716581299941e+01 7.0752916875029621e+00 0 0 0
299 2 6.0851884327942685e+00 2.5718755916955246e+01 8.4959242795732965e+00 0 0 0
300 2 8.1308864843984612e+00 2.3773740842193639e+01 8.4517366490191197e+00 0 0 0
301 2 6.0851879560444662e+00 2.5718755981122264e+01 5.6406123123864313e+00 0 0 0
302 2 6.1046410670299425e+00 2.3704961310287370e+01 7.0307361622364457e+00 0 0 0
303 2 8.1308860385677040e+00 2.3773741278553263e+01 5.5964240298022823e+00 0 0 0
304 2 8.1081680692256679e+00 2.5788038000951786e+01 7.0652082257495818e+00 0 0 0
305 2 1.0129528780468183e+01 2.5860129250044594e+01 8.4929038947098512e+00 0 0 0
306 2 1.2174545689960672e+01 2.3916972756893777e+01 8.4511362496293749e+00 0 0 0
307 2 1.0129528708103114e+01 2.5860129391214159e+01 5.6375915327226744e+00 0 0 0
308 2 1.0154241809309241e+01 2.3844786370304554e+01 7.0219979861215398e+00 0 0 0
309 2 1.2174545844552092e+01 2.3916972618910805e+01 5.5958239179894784e+00 0 0 0
310 2 1.2149198339582618e+01 2.5933423656351131e+01 7.0676881299556849e+00 0 0 0
253 2 2.0261357929261443e+00 2.9636420689800214e+01 8.5498085826071755e+00 0 0 0
311 2 8.8265138908620398e-03 2.7594513053240156e+01 8.5391202408509201e+00 0 0 0
312 2 4.0519894742830926e+00 2.7670176255433127e+01 8.5303537229111637e+00 0 0 0
314 2 8.8266808985734760e-03 2.7594511794760276e+01 5.6838085789590815e+00 0 0 0
315 2 2.0261359367138674e+00 2.9636420633580116e+01 5.6944957790719117e+00 0 0 0
316 2 2.0302624341987179e+00 2.7621777873303053e+01 7.1057965942501262e+00 0 0 0
317 2 4.0519896275168472e+00 2.7670175488986974e+01 5.6750416546770763e+00 0 0 0
318 2 4.0454805767954225e+00 2.9683509764545626e+01 7.1278329652059291e+00 0 0 0
354 2 6.9628831093245646e-03 2.9611749539599710e+01 7.1174532969718305e+00 0 0 0
260 2 6.0642883148227842e+00 2.9746793751808131e+01 8.5616677199788604e+00 0 0 0
319 2 8.0937819265235653e+00 2.7802765071463899e+01 8.5310446819887726e+00 0 0 0
320 2 8.0824297410785206e+00 2.9817831614539340e+01 4.2849414199537224e+00 0 0 0
321 2 6.0642883180927774e+00 2.9746793684256950e+01 5.7063552156717599e+00 0 0 0
322 2 6.0733020097676684e+00 2.7732828492660317e+01 7.1020484178548084e+00 0 0 0
323 2 8.0937818467421820e+00 2.7802765136468384e+01 5.6757324666395172e+00 0 0 0
324 2 8.0824296800308506e+00 2.9817831568800578e+01 7.1402536706151167e+00 0 0 0
325 2 1.2132287618538628e+01 2.7949747760653224e+01 8.5376165059513216e+00 0 0 0
326 2 1.2118139950524993e+01 2.9966142613693592e+01 4.2963083634239254e+00 0 0 0
327 2 1.0100263140633421e+01 2.9891609522476390e+01 5.7185564091415531e+00 0 0 0
328 2 1.0113405949238354e+01 2.7875709434769391e+01 7.1061808637514101e+00 0 0 0
329 2 1.2132287605762862e+01 2.7949747793183697e+01 5.6823043023300466e+00 0 0 0
331 2 1.2118139963073634e+01 2.9966142604121941e+01 7.1516205356647449e+00 0 0 0
333 2 4.0292355587682041e+00 3.3705867091811236e+01 4.3237728415831205e+00 0 0 0
334 2 2.0167695539838344e+00 3.3658477320792230e+01 5.7261456218105256e+00 0 0 0
335 2 2.0221213979132990e+00 3.1648606397289214e+01 7.1376595468016806e+00 0 0 0
336 2 4.0387285931123627e+00 3.1695399410954042e+01 5.7249685642472814e+00 0 0 0
337 2 4.0292356609169486e+00 3.3705865018502017e+01 7.1790858261246715e+00 0 0 0
347 2 5.6383667590693591e-03 3.1626070558880855e+01 8.5498474948674694e+00 0 0 0
351 2 4.5551330216132965e-03 3.3638264647763066e+01 7.1261068043853548e+00 0 0 0
352 2 5.6385282114464353e-03 3.1626070717522150e+01 5.6945352782301031e+00 0 0 0
338 2 6.0545633054800962e+00 3.1760680365395629e+01 4.3107580227896403e+00 0 0 0
339 2 8.0515217185640431e+00 3.3850220586612608e+01 4.3617961949379307e+00 0 0 0
340 2 6.0406102151526380e+00 3.3774992173889494e+01 5.7726282721053943e+00 0 0 0
341 2 6.0545632285399691e+00 3.1760679879482328e+01 7.1660707310130274e+00 0 0 0
342 2 8.0698093779601692e+00 3.1833454463748037e+01 5.7498826157834486e+00 0 0 0
343 2 8.0515219657398749e+00 3.3850220539395110e+01 7.2171084425354302e+00 0 0 0
268 2 1.4119367379018838e+01 3.2057405909820616e+01 7.1991181838516178e+00 0 0 0
273 2 1.2101712587731416e+01 3.1982869282158184e+01 5.7664386811935531e+00 0 0 0
330 2 1.0085312642222762e+01 3.1908090719527209e+01 7.1868871612089809e+00 0 0 0
344 2 1.0085312640090786e+01 3.1908090667065569e+01 4.3315750345956481e+00 0 0 0
345 2 1.4119367370758475e+01 3.2057405879396264e+01 4.3438059892678025e+00 0 0 0
355 2 2.0083802268694928e+00 3.5666534090170295e+01 1.4618852992782512e+00 0 0 0
356 2 4.0139568999928086e+00 3.5715252566010129e+01 7.1509349137236375e-02 0 0 0
357 2 4.0139569478585022e+00 3.5715254223747031e+01 2.9268273574371970e+00 0 0 0
370 2 1.9944096626307848e+00 3.7673703380273238e+01 5.8896915276430789e-02 0 0 0
374 2 1.9944150028625509e+00 3.7673700678483605e+01 2.9142336467678311e+00 0 0 0
470 2 3.5257708866137951e-03 3.5649916677412428e+01 2.8465153051177374e+00 0 0 0
471 2 2.4395827757952727e-03 3.7664024765498688e+01 1.4219195020191393e+00 0 0 0
478 2 2.4320008592492361e-03 3.7664024523161999e+01 4.2772260680450254e+00 0 0 0
358 2 6.0180243599444507e+00 3.5790884007958475e+01 1.5285025340971070e+00 0 0 0
359 2 8.0219920129031532e+00 3.5869175357274010e+01 1.2275985250233985e-01 0 0 0
360 2 8.0219909867614607e+00 3.5869174448796329e+01 2.9780718355787243e+00 0 0 0
361 2 1.0063491378397433e+01 3.3925632143712626e+01 9.1542547553561504e-02 0 0 0