LAMMPS data file via write_data, version 11 Aug 2017, timestep = 1000

10801 atoms
2 atom types

0.0000000000000000e+00 7.4183187028069000e+01 xlo xhi
0.0000000000000000e+00 1.2114063714148099e+02 ylo yhi
0.0000000000000000e+00 1.3988115892687000e+01 zlo zhi

Masses

1 12.0107
2 55.845

Atoms # atomic

1 2 4.1299334238135671e-01 1.9428212998379668e+00 4.6393994543750496e+00 0 0 0
2 2 2.0604590443750901e+00 1.9255130596728738e+00 2.2887300975304972e+00 0 0 0
3 2 2.8813586837558418e+00 1.9442970988623163e+00 4.6460809952099487e+00 0 0 0
4 2 1.2375505033893928e+00 3.9589209779965322e+00 3.4774575004699444e+00 0 0 0
5 2 3.7955515737955975e-01 4.0328032060200645e+00 1.1791080377567267e+00 0 0 0
7 2 2.8669384630715720e+00 3.9792076665083904e+00 1.1394217995646059e+00 0 0 0
10801 1 2.0614962178591081e+00 9.3712603968909025e-01 5.7983256255702020e-01 0 0 0
6 2 3.7059893948549321e+00 3.9537858774226811e+00 3.4689884304595933e+00 0 0 0
8 2 4.5451091241563812e+00 1.9212526738293068e+00 2.3344823144328131e+00 0 0 0
9 2 5.3612121342451253e+00 1.9351190296333669e+00 4.6649183772009053e+00 0 0 0
10 2 7.0147884305570916e+00 1.9300612649682256e+00 2.3269974763759853e+00 0 0 0
11 2 6.1808997319268473e+00 3.9509205801145639e+00 3.4767826190693567e+00 0 0 0
12 2 5.3451432941307653e+00 3.9495353053104023e+00 1.1494609074432687e+00 0 0 0
13 2 7.8346970366289730e+00 1.9296814412585286e+00 4.6597776824497519e+00 0 0 0
14 2 9.4856639990430196e+00 1.9249401160058890e+00 2.3253881436535737e+00 0 0 0
15 2 1.0307368004142926e+01 1.9220041705046458e+00 4.6572648777734127e+00 0 0 0
16 2 8.6560110136412121e+00 3.9459864417895361e+00 3.4736207082705182e+00 0 0 0
17 2 7.8264182362294603e+00 3.9491154439169449e+00 1.1442287279708441e+00 0 0 0
19 2 1.0303713644987617e+01 3.9418761529516426e+00 1.1398816255487076e+00 0 0 0
18 2 1.1130341862401092e+01 3.9382387171629429e+00 3.4699635730099483e+00 0 0 0
20 2 1.1956953211129562e+01 1.9165649161324945e+00 2.3240453934250667e+00 0 0 0
21 2 1.2779751478508256e+01 1.9132311851648245e+00 4.6554922841617863e+00 0 0 0
22 2 1.4428652747516026e+01 1.9073303212106041e+00 2.3229547597879856e+00 0 0 0
23 2 1.3604028289283617e+01 3.9294873660933911e+00 3.4670660806741331e+00 0 0 0
24 2 1.2778747651140735e+01 3.9330095069317363e+00 1.1365444498065052e+00 0 0 0
25 2 1.5252051836361806e+01 1.9039986399120985e+00 4.6542820038419448e+00 0 0 0
26 2 1.6900609840927192e+01 1.8978532215406476e+00 2.3222523593943198e+00 0 0 0
27 2 1.7724322662801178e+01 1.8945713860647195e+00 4.6536075429379338e+00 0 0 0
28 2 1.6077211259643398e+01 3.9203826615396369e+00 3.4652620812302186e+00 0 0 0
29 2 1.5252561118984383e+01 3.9237434151865069e+00 1.1343328232690297e+00 0 0 0
31 2 1.7725655306763933e+01 3.9143916059303665e+00 1.1333620277700798e+00 0 0 0
32 2 4.1043113302816125e-01 5.9864655863051475e+00 4.6470318313691923e+00 0 0 0
33 2 2.0531676450900802e+00 5.9922875688338904e+00 2.3120846402304025e+00 0 0 0
34 2 2.8846881610286159e+00 5.9801650952176857e+00 4.6355855102065791e+00 0 0 0
35 2 1.2319402241542752e+00 8.0094120698835205e+00 3.4774307376675941e+00 0 0 0
36 2 4.0608132932641672e-01 8.0182598570350709e+00 1.1511489581634413e+00 0 0 0
38 2 2.8827700881597735e+00 8.0060820358363376e+00 1.1344228739093307e+00 0 0 0
37 2 3.7080751015663069e+00 7.9996740377200890e+00 3.4609205545268646e+00 0 0 0
39 2 4.5292563358644031e+00 5.9777194421728490e+00 2.3004328734724937e+00 0 0 0
40 2 5.3576427001464042e+00 5.9748834546178911e+00 4.6288977341194926e+00 0 0 0
41 2 7.0045925759008227e+00 5.9694192566645548e+00 2.2958471531365419e+00 0 0 0
42 2 6.1830514396098719e+00 7.9916301012276678e+00 3.4486970279187745e+00 0 0 0
43 2 5.3578440583559566e+00 7.9946696701318265e+00 1.1213603459151715e+00 0 0 0
44 2 7.8318834466014895e+00 5.9674403562779226e+00 4.6240075969576671e+00 0 0 0
45 2 9.4802931666767787e+00 5.9624326824578811e+00 2.2886432360812581e+00 0 0 0
46 2 1.0306342792499565e+01 5.9594073468523181e+00 4.6175732848528179e+00 0 0 0
47 2 8.6579420207320243e+00 7.9832696365326621e+00 3.4385769783993276e+00 0 0 0
48 2 7.8325607143275251e+00 7.9855956401416339e+00 1.1111535338267362e+00 0 0 0
50 2 1.0307537273371329e+01 7.9777647398275722e+00 1.1010760429031461e+00 0 0 0
49 2 1.1132676331808343e+01 7.9749775040787112e+00 3.4293846613953982e+00 0 0 0
51 2 1.1955297698590034e+01 5.9541843217132433e+00 2.2825079649589788e+00 0 0 0
52 2 1.2780554531016499e+01 5.9510235295681078e+00 4.6121478225983639e+00 0 0 0
53 2 1.4429532153547690e+01 5.9455220427672337e+00 2.2781820979226208e+00 0 0 0
54 2 1.3606991716573539e+01 7.9667713375908136e+00 3.4224385883989918e+00 0 0 0
55 2 1.2782139288150839e+01 7.9696232709478148e+00 1.0931765427742044e+00 0 0 0
56 2 1.5254295600707318e+01 5.9424229802761070e+00 4.6085340296910493e+00 0 0 0
57 2 1.6903063316910380e+01 5.9367483165917934e+00 2.2759140219068388e+00 0 0 0
58 2 1.7727498850061703e+01 5.9337063257774147e+00 4.6069948856729859e+00 0 0 0
59 2 1.6080727989932981e+01 7.9586480308665335e+00 3.4182750937210717e+00 0 0 0
60 2 1.5256149611300875e+01 7.9614533429036234e+00 1.0880140501468729e+00 0 0 0
62 2 1.7729499105189205e+01 7.9533129254794570e+00 1.0858099238184411e+00 0 0 0
63 2 4.0852916334915240e-01 1.0025876950279969e+01 4.6457238181001594e+00 0 0 0
64 2 2.0590135431592786e+00 1.0023674729154171e+01 2.2998190895503874e+00 0 0 0
65 2 2.8848492807134645e+00 1.0019882216079898e+01 4.6235773882442563e+00 0 0 0
66 2 1.2346461942381177e+00 1.2040306255325785e+01 3.4679976943260633e+00 0 0 0
67 2 4.0931610521031225e-01 1.2042886528678526e+01 1.1457148214892070e+00 0 0 0
69 2 2.8855763418525142e+00 1.2037123722197149e+01 1.1187224913376654e+00 0 0 0
68 2 3.7108034206316076e+00 1.2033966851019036e+01 3.4414639146591357e+00 0 0 0
70 2 4.5347286868199790e+00 1.0015011654697496e+01 2.2800881125610726e+00 0 0 0
71 2 5.3603618067800252e+00 1.0012468387226216e+01 4.6051553369328619e+00 0 0 0
72 2 7.0099135261649606e+00 1.0006495446598782e+01 2.2635474014047965e+00 0 0 0
73 2 6.1864855111678159e+00 1.2026136922614628e+01 3.4184517563589938e+00 0 0 0
74 2 5.3613107038641683e+00 1.2028810254034736e+01 1.0945125748590689e+00 0 0 0
75 2 7.8353836248536082e+00 1.0003985001335570e+01 4.5897731527832271e+00 0 0 0
76 2 9.4848667202880410e+00 9.9980688429150266e+00 2.2497769342597027e+00 0 0 0
77 2 1.0310090565153049e+01 9.9953812522294481e+00 4.5769289965253135e+00 0 0 0
78 2 8.6617097659355604e+00 1.2017823538720696e+01 3.3993298599482045e+00 0 0 0
79 2 7.8366009313130789e+00 1.2020324166132257e+01 1.0740343383155622e+00 0 0 0
81 2 1.0311513266523193e+01 1.2012340178986801e+01 1.0575210884723358e+00 0 0 0
80 2 1.1136463690557553e+01 1.2009931113698917e+01 3.3841875714374492e+00 0 0 0
82 2 1.1959515744668295e+01 9.9900877985822998e+00 2.2386064032302020e+00 0 0 0
83 2 1.2784472429657265e+01 9.9874755017661450e+00 4.5668871386663215e+00 0 0 0
84 2 1.4433660904559865e+01 9.9825057286754184e+00 2.2307928270360335e+00 0 0 0
85 2 1.3610707186963740e+01 1.2002887614393995e+01 3.3732127904520337e+00 0 0 0
86 2 1.2785965348135059e+01 1.2005133929023737e+01 1.0450737329648399e+00 0 0 0
87 2 1.5258343193922688e+01 9.9800058689559652e+00 4.5603121308576551e+00 0 0 0
88 2 1.6907176439101363e+01 9.9751825220903854e+00 2.2266678313427088e+00 0 0 0
89 2 1.7731589452057335e+01 9.9727387400736109e+00 4.5574700815938538e+00 0 0 0
90 2 1.6084348058134619e+01 1.1996419654738769e+01 3.3666745320722655e+00 0 0 0
91 2 1.5259836244734874e+01 1.1998535468022240e+01 1.0370234278680406e+00 0 0 0
93 2 1.7733056597630707e+01 1.1992269947579551e+01 1.0334965131607192e+00 0 0 0
94 2 4.0977993153875020e-01 1.4055832093823366e+01 4.6398328016082324e+00 0 0 0
95 2 2.0606376860971722e+00 1.4053566873166357e+01 2.2857008279664348e+00 0 0 0
96 2 2.8861231062342214e+00 1.4051366301315811e+01 4.6059044528613784e+00 0 0 0
97 2 1.2353792348150265e+00 1.6068903456486229e+01 3.4562790117568838e+00 0 0 0
98 2 4.1004888388595695e-01 1.6070250553856823e+01 1.1389534435568325e+00 0 0 0
100 2 2.8861860256666434e+00 1.6065711229029404e+01 1.0976076872981875e+00 0 0 0
99 2 3.7114979798112002e+00 1.6063399672643438e+01 3.4159101608361726e+00 0 0 0
101 2 4.5367247871933509e+00 1.4046780282866653e+01 2.2539649471072165e+00 0 0 0
102 2 5.3621823118714067e+00 1.4044552697884434e+01 4.5754094474399558e+00 0 0 0
103 2 7.0123913000863789e+00 1.4038889563414649e+01 2.2266556308861367e+00 0 0 0
104 2 6.1872757054633807e+00 1.6056205281566307e+01 3.3805305735271540e+00 0 0 0
105 2 5.3620464923502533e+00 1.6058570155418671e+01 1.0603924307770571e+00 0 0 0
106 2 7.8377031408613922e+00 1.4036587139973040e+01 4.5499151918301264e+00 0 0 0
107 2 9.4875120805441302e+00 1.4031226480847190e+01 2.2046248119055010e+00 0 0 0
108 2 1.0312551374832037e+01 1.4028949310929317e+01 4.5298019668826406e+00 0 0 0
109 2 8.6624049659517546e+00 1.6049031568200331e+01 3.3518844136013421e+00 0 0 0
110 2 7.8373828126882223e+00 1.6051123863703925e+01 1.0293674630810765e+00 0 0 0
112 2 1.0311991905086664e+01 1.6044686768056120e+01 1.0054393027551072e+00 0 0 0
111 2 1.1136757146049051e+01 1.6042884791689151e+01 3.3303361151064714e+00 0 0 0
113 2 1.1962019684371342e+01 1.4024465532683561e+01 2.1880580523804660e+00 0 0 0
114 2 1.2786811934612132e+01 1.4022469994506540e+01 4.5150489545901822e+00 0 0 0
115 2 1.4435929284621619e+01 1.4018657008647695e+01 2.1768503543638640e+00 0 0 0
116 2 1.3610481122550533e+01 1.6037924407270982e+01 3.3154339859217208e+00 0 0 0
117 2 1.2785925775875107e+01 1.6039419739037125e+01 9.8836313075157212e-01 0 0 0
118 2 1.5260492025535813e+01 1.4016886957473833e+01 4.5056218272555864e+00 0 0 0
119 2 1.6909245888536923e+01 1.4013444730500117e+01 2.1709211395239185e+00 0 0 0
120 2 1.7733590642757925e+01 1.4011779302673578e+01 4.5014473581090231e+00 0 0 0
121 2 1.6083714820054084e+01 1.6033784625570792e+01 3.3066955982844171e+00 0 0 0
122 2 1.5259323693450451e+01 1.6035080311372152e+01 9.7760835457538098e-01 0 0 0
124 2 1.7732291061480787e+01 1.6031252548656770e+01 9.7279005140178332e-01 0 0 0
125 2 4.0996233801428400e-01 1.8083075195652494e+01 4.6314011104475297e+00 0 0 0
126 2 2.0604783665066364e+00 1.8080597061913693e+01 2.2658051749424382e+00 0 0 0
127 2 2.8857201329407793e+00 1.8078681125626233e+01 4.5806772785920700e+00 0 0 0
128 2 1.2346455789523600e+00 2.0094225066459742e+01 3.4384255782786997e+00 0 0 0
129 2 4.0973745109281795e-01 2.0095414515582771e+01 1.1283162715103903e+00 0 0 0
131 2 2.8845220194543590e+00 2.0090751391501701e+01 1.0662359608331871e+00 0 0 0
130 2 3.7093028270528667e+00 2.0088760687626394e+01 3.3784925151891971e+00 0 0 0
132 2 4.5360253815845315e+00 1.8074305872731642e+01 2.2185303546753148e+00 0 0 0
133 2 5.3611717593712633e+00 1.8072087162812863e+01 4.5355993277430429e+00 0 0 0
134 2 7.0110337619929064e+00 1.8067441989679310e+01 2.1788151892102743e+00 0 0 0
135 2 6.1833663128391949e+00 2.0082395402910034e+01 3.3279138109839517e+00 0 0 0
136 2 5.3588131262496805e+00 2.0084295960240997e+01 1.0121355832815848e+00 0 0 0
137 2 7.8359028434247637e+00 1.8065592286514530e+01 4.4989196525173245e+00 0 0 0
138 2 9.4851213608020490e+00 1.8061816547572970e+01 2.1483062001512785e+00 0 0 0
139 2 1.0309685389151655e+01 1.8060302242612504e+01 4.4714507861566881e+00 0 0 0
140 2 8.6561896765632813e+00 2.0077901146050301e+01 3.2895205619477697e+00 0 0 0
141 2 7.8320047256084235e+00 2.0079138364036989e+01 9.6968604592328345e-01 0 0 0
143 2 1.0304215491220802e+01 2.0075600793223732e+01 9.3886389423718641e-01 0 0 0
142 2 1.1128186137697984e+01 2.0074735946347847e+01 3.2622190743178479e+00 0 0 0
144 2 1.1958448695407672e+01 1.8057483044585251e+01 2.1264743531797738e+00 0 0 0
145 2 1.2782813209512732e+01 1.8056314776988966e+01 4.4522839578139548e+00 0 0 0
146 2 1.4431340392634597e+01 1.8054190313231075e+01 2.1122489216491904e+00 0 0 0
147 2 1.3599930624504426e+01 2.0072561927049456e+01 3.2441675296086894e+00 0 0 0
148 2 1.2775990026528111e+01 2.0073177078323152e+01 9.1792093177620282e-01 0 0 0
149 2 1.5255613697225607e+01 1.8053263793894079e+01 4.4403796860265023e+00 0 0 0
150 2 1.6904066761348126e+01 1.8051521688463573e+01 2.1047417670301112e+00 0 0 0
151 2 1.7728315863630669e+01 1.8050713455513037e+01 4.4349904453307598e+00 0 0 0
152 2 1.6071910118958943e+01 2.0070971025343837e+01 3.2337766358217044e+00 0 0 0
153 2 1.5247855031861846e+01 2.0071444507087168e+01 9.0511327096025851e-01 0 0 0
155 2 1.7720169600192829e+01 2.0070079410481839e+01 8.9926101064951836e-01 0 0 0
156 2 4.0903401437204723e-01 2.2106234363219727e+01 4.6174754105247064e+00 0 0 0
157 2 2.0578860720978400e+00 2.2103415330867797e+01 2.2338830141108654e+00 0 0 0
158 2 2.8819880562703206e+00 2.2101928368830016e+01 4.5408019851718970e+00 0 0 0
159 2 1.2312926360089040e+00 2.4114045951706125e+01 3.4073550119912470e+00 0 0 0
160 2 4.0814167270326318e-01 2.4115496815226585e+01 1.1090149556015281e+00 0 0 0
161 2 3.7009393110241260e+00 2.4108901025593109e+01 3.3156873222624181e+00 0 0 0
162 2 2.8779152072111973e+00 2.4110479063021678e+01 1.0126955838824006e+00 0 0 0
163 2 4.5304414801068766e+00 2.2097540802101683e+01 2.1643214355028415e+00 0 0 0
164 2 5.3542704643908161e+00 2.2095896011743047e+01 4.4758701118050555e+00 0 0 0
165 2 7.0013212986716207e+00 2.2093817453873761e+01 2.1108065416742052e+00 0 0 0
166 2 6.1676983966248038e+00 2.4107697206642754e+01 3.2476870576882431e+00 0 0 0
167 2 5.3457195074410855e+00 2.4107701832416879e+01 9.3628097577072900e-01 0 0 0
168 2 7.8246437132928559e+00 2.2093075939620277e+01 4.4279009973639134e+00 0 0 0
169 2 9.4710212825902609e+00 2.2091832150351930e+01 2.0727762047062703e+00 0 0 0
170 2 1.0294176302149111e+01 2.2091408211203010e+01 4.3943674767482719e+00 0 0 0
171 2 8.6331063219480821e+00 2.4107836088985881e+01 3.2012196586026076e+00 0 0 0
172 2 7.8113318792243369e+00 2.4107709958777335e+01 8.8330531891038699e-01 0 0 0
173 2 1.1098942923716672e+01 2.4108171677379083e+01 3.1708322344553248e+00 0 0 0
174 2 1.0276867125974798e+01 2.4108040922109868e+01 8.4813816861185054e-01 0 0 0
175 2 1.1940530935433069e+01 2.2090706588711196e+01 2.0471784207801833e+00 0 0 0
176 2 1.2763812939267542e+01 2.2090445098516788e+01 4.3722484667814978e+00 0 0 0
177 2 1.4410666000035423e+01 2.2089997252578979e+01 2.0311644434234850e+00 0 0 0
178 2 1.3566322362804009e+01 2.4108367521537073e+01 3.1518577086822677e+00 0 0 0
179 2 1.2743643608386863e+01 2.4108316409719951e+01 8.2578505757390508e-01 0 0 0
180 2 1.5234288228868568e+01 2.2089810066845995e+01 4.3589414030017597e+00 0 0 0
181 2 1.6881961172625203e+01 2.2089481432936143e+01 2.0227695182395995e+00 0 0 0
182 2 1.7706039355226022e+01 2.2089345623441019e+01 4.3528226265126584e+00 0 0 0
183 2 1.6035836208707526e+01 2.4108387814511353e+01 3.1412122074132482e+00 0 0 0
184 2 1.5212403974703465e+01 2.4108388149350006e+01 8.1260721022265214e-01 0 0 0
185 2 1.8507744100407784e+01 2.4108409362579852e+01 3.1372760631344758e+00 0 0 0
186 2 1.7683496984334560e+01 2.4108383222724633e+01 8.0654206458337951e-01 0 0 0
187 2 1.2328626609230771e+00 1.9476288875851107e+00 6.9780577890071713e+00 0 0 0
188 2 2.0537247045316631e+00 1.9507273063736983e+00 9.3115972060057715e+00 0 0 0
190 2 4.0714032448662429e-01 3.9722462452323941e+00 8.1368581538769185e+00 0 0 0
191 2 2.0588089261431253e+00 3.9649963285951753e+00 5.8090502358853424e+00 0 0 0
192 2 2.8820678203375496e+00 3.9679957467884361e+00 8.1406756387922989e+00 0 0 0
189 2 3.7066783947988680e+00 1.9455508908521837e+00 6.9876749730448111e+00 0 0 0
193 2 4.5289014370670388e+00 1.9447275207384693e+00 9.3237199201780712e+00 0 0 0
194 2 6.1829780369836671e+00 1.9365297973080968e+00 6.9946855823016270e+00 0 0 0
195 2 7.0044702364455951e+00 1.9330216918779319e+00 9.3248653373384158e+00 0 0 0
196 2 4.5315758703110580e+00 3.9596897729732983e+00 5.8065554485435991e+00 0 0 0
197 2 5.3558818788355822e+00 3.9595097163293138e+00 8.1408098599824665e+00 0 0 0
198 2 7.0064102132169541e+00 3.9516566089341181e+00 5.8079406722117621e+00 0 0 0
199 2 8.6567290709703215e+00 1.9277341620458828e+00 6.9908724170289425e+00 0 0 0
200 2 9.4793202068071789e+00 1.9251076762580950e+00 9.3213057247545237e+00 0 0 0
202 2 7.8303204148235048e+00 3.9491476983079674e+00 8.1389053413754251e+00 0 0 0
203 2 9.4807734368089456e+00 3.9436165332663977e+00 5.8041695736408823e+00 0 0 0
204 2 1.0304804393929279e+01 3.9409752755486442e+00 8.1345323544793899e+00 0 0 0
201 2 1.1129978928229088e+01 1.9192136131231121e+00 6.9883210521097867e+00 0 0 0
205 2 1.1953284430064476e+01 1.9165308701392061e+00 9.3189736360668558e+00 0 0 0
206 2 1.3602891133776497e+01 1.9102148593070531e+00 6.9865730380159938e+00 0 0 0
207 2 1.4426591409945337e+01 1.9073359035687369e+00 9.3174369683530909e+00 0 0 0
208 2 1.1954749571881466e+01 3.9352033574768410e+00 5.8005102055050619e+00 0 0 0
209 2 1.2778856860192970e+01 3.9324005217501514e+00 8.1309767384626426e+00 0 0 0
210 2 1.4428270612004329e+01 3.9263425488216557e+00 5.7978318633484225e+00 0 0 0
211 2 1.6075564923948427e+01 1.9008947240474949e+00 6.9854531456430760e+00 0 0 0
212 2 1.6899466395314899e+01 1.8978771699852015e+00 9.3165214832231467e+00 0 0 0
214 2 1.5252397610477558e+01 3.9234164909896116e+00 8.1286100271899677e+00 0 0 0
215 2 1.6901358452497060e+01 3.9172348486402018e+00 5.7963672276203040e+00 0 0 0
216 2 1.7725463354962081e+01 3.9142261901451327e+00 8.1275447798152491e+00 0 0 0
217 2 1.2347086231466249e+00 5.9881004180807365e+00 6.9718843897086700e+00 0 0 0
218 2 2.0595255078609509e+00 5.9938508386332936e+00 9.2969802096872485e+00 0 0 0
220 2 4.1011168775735513e-01 8.0076118120551172e+00 8.1412553138966306e+00 0 0 0
221 2 2.0603719295509788e+00 8.0034290287637848e+00 5.7999436413031384e+00 0 0 0
222 2 2.8859915538752552e+00 8.0058131647021344e+00 8.1248118701784939e+00 0 0 0
219 2 3.7091617405384767e+00 5.9825148437621287e+00 6.9649331136368140e+00 0 0 0
223 2 4.5347094486214328e+00 5.9842902224449839e+00 9.2943304029376748e+00 0 0 0
224 2 6.1829123345821344e+00 5.9742418722420121e+00 6.9592301110274519e+00 0 0 0
225 2 7.0072965164020102e+00 5.9703403363585545e+00 9.2898263640408292e+00 0 0 0
226 2 4.5349911800122271e+00 7.9973934049358517e+00 5.7868651342139197e+00 0 0 0
227 2 5.3608268874735510e+00 7.9972293519036608e+00 8.1141266880633918e+00 0 0 0
228 2 7.0092664407314373e+00 7.9892788725623722e+00 5.7761343153683935e+00 0 0 0
229 2 8.6569548669214900e+00 5.9649039644758277e+00 6.9533748546684624e+00 0 0 0
230 2 9.4815090503262596e+00 5.9622200847712552e+00 9.2827238238440444e+00 0 0 0
232 2 7.8344050369017575e+00 7.9861239090136724e+00 8.1044417297717999e+00 0 0 0
233 2 9.4835724943484241e+00 7.9803765407258149e+00 5.7664670251513295e+00 0 0 0
234 2 1.0308568236384186e+01 7.9775779294911286e+00 8.0948072702120903e+00 0 0 0
231 2 1.1131215128879044e+01 5.9565928397156096e+00 6.9470304131258365e+00 0 0 0
235 2 1.1955794688396686e+01 5.9539995458175525e+00 9.2766034415957623e+00 0 0 0
236 2 1.3605213187427148e+01 5.9481431776629421e+00 6.9421188229121462e+00 0 0 0
237 2 1.4429707479586185e+01 5.9454474234029151e+00 9.2722674489292043e+00 0 0 0
238 2 1.1957873340504090e+01 7.9720900312381398e+00 5.7580400760789967e+00 0 0 0
239 2 1.2782696264774872e+01 7.9694212707784704e+00 8.0870813038519724e+00 0 0 0
240 2 1.4431831712402319e+01 7.9639707889972033e+00 5.7520349829315744e+00 0 0 0
241 2 1.6078749629712057e+01 5.9395207713141422e+00 6.9391557054837136e+00 0 0 0
242 2 1.6903106521458639e+01 5.9367274581689609e+00 9.2699885821709280e+00 0 0 0
244 2 1.5256442444227742e+01 7.9613324815671112e+00 8.0819953146509125e+00 0 0 0
245 2 1.6905263829893631e+01 7.9559035782422178e+00 5.7488736772021500e+00 0 0 0
246 2 1.7729648927000422e+01 7.9532487224411961e+00 8.0798287121893644e+00 0 0 0
247 2 1.2355720109909991e+00 1.0023011322622883e+01 6.9678437619586893e+00 0 0 0
248 2 2.0614095458951174e+00 1.0024670025297526e+01 9.2912759429722129e+00 0 0 0
250 2 4.1040087950605775e-01 1.2040106971852401e+01 8.1390368772952932e+00 0 0 0
251 2 2.0605491661039830e+00 1.2038051174723606e+01 5.7897091810221015e+00 0 0 0
252 2 2.8867174692945436e+00 1.2037375784390763e+01 8.1115327993165085e+00 0 0 0
249 2 3.7114073027210668e+00 1.0018856046277152e+01 6.9470750320071959e+00 0 0 0
253 2 4.5377660952063508e+00 1.0019755087321837e+01 9.2714304419977349e+00 0 0 0
254 2 6.1865077900858489e+00 1.0010661588400394e+01 6.9305629035077283e+00 0 0 0
255 2 7.0117033460559686e+00 1.0007224040686689e+01 9.2572373596853428e+00 0 0 0
256 2 4.5366447639785425e+00 1.2032142482610501e+01 5.7641285393932735e+00 0 0 0
257 2 5.3627285699288532e+00 1.2030868392186585e+01 8.0872909984054377e+00 0 0 0
258 2 7.0121380589211961e+00 1.2023908175757802e+01 5.7427011520698299e+00 0 0 0
259 2 8.6608842193509137e+00 1.0000980239361896e+01 6.9164889070616011e+00 0 0 0
260 2 9.4858542564393744e+00 9.9980377926361772e+00 9.2436267394430534e+00 0 0 0
262 2 7.8375514625452718e+00 1.2020900771150465e+01 8.0677549175784975e+00 0 0 0
263 2 9.4869960989560322e+00 1.2015155695535119e+01 5.7251033991988232e+00 0 0 0
264 2 1.0312087068215108e+01 1.2012426647334497e+01 8.0514045363552302e+00 0 0 0
261 2 1.1135258890785543e+01 9.9926271049901256e+00 6.9044987270653237e+00 0 0 0
265 2 1.1960084313464700e+01 9.9900496250470354e+00 9.2325199131263602e+00 0 0 0
266 2 1.3609352122733112e+01 9.9849334783349359e+00 6.8955931513524575e+00 0 0 0
267 2 1.4433992627995723e+01 9.9825095647752242e+00 9.2247607498868742e+00 0 0 0
268 2 1.1961469878242433e+01 1.2007499439069541e+01 5.7113391579079869e+00 0 0 0
269 2 1.2786315874259193e+01 1.2005142244621156e+01 8.0390207488033898e+00 0 0 0
270 2 1.4435446771471495e+01 1.2000682714802480e+01 5.7018467056369539e+00 0 0 0
271 2 1.6082944166798207e+01 9.9775759663647090e+00 6.8902637091821983e+00 0 0 0
272 2 1.6907369543357252e+01 9.9752012725793016e+00 9.2206721533684810e+00 0 0 0
274 2 1.5260051590657007e+01 1.1998542591673884e+01 8.0310109785401131e+00 0 0 0
275 2 1.6908826303933008e+01 1.1994337234410843e+01 5.6968281425471385e+00 0 0 0
276 2 1.7733188345995419e+01 1.1992279593306666e+01 8.0275107361463096e+00 0 0 0
277 2 1.2355559726570231e+00 1.4054486299433997e+01 6.9593761619620862e+00 0 0 0
278 2 2.0612416123852513e+00 1.4053682850420397e+01 9.2792220459801360e+00 0 0 0
280 2 4.1018048698247317e-01 1.6069583432594918e+01 8.1329388875943813e+00 0 0 0
281 2 2.0608605944432279e+00 1.6067303623113251e+01 5.7736783373782492e+00 0 0 0
282 2 2.8863804582046932e+00 1.6065813961626052e+01 8.0914429412417324e+00 0 0 0
279 2 3.7118885006520075e+00 1.4049828632807511e+01 6.9263117201269688e+00 0 0 0
283 2 4.5374391918578683e+00 1.4048021395083781e+01 9.2474977181690612e+00 0 0 0
284 2 6.1878384816420953e+00 1.4042561629618152e+01 6.8974016376663707e+00 0 0 0
285 2 7.0130268825087310e+00 1.4039545033047304e+01 9.2204058934577500e+00 0 0 0
286 2 4.5369556281938532e+00 1.6061378403099706e+01 5.7346641130770388e+00 0 0 0
287 2 5.3623481773418913e+00 1.6059243952053446e+01 8.0541925203789084e+00 0 0 0
288 2 7.0125829167446749e+00 1.6054061670095532e+01 5.7014160499856112e+00 0 0 0
289 2 8.6629639037983690e+00 1.4033993205139794e+01 6.8739201249630746e+00 0 0 0
290 2 9.4878807221598720e+00 1.4031231335519037e+01 9.1986485877622162e+00 0 0 0
292 2 7.8376773624641167e+00 1.6051544063993230e+01 8.0232696547689226e+00 0 0 0
293 2 9.4873852762200865e+00 1.6046926869380965e+01 5.6752538957313323e+00 0 0 0
294 2 1.0312179515483770e+01 1.6044772254927530e+01 7.9994660527135499e+00 0 0 0
291 2 1.1137510667207442e+01 1.4026653600215095e+01 6.8556228169260267e+00 0 0 0
295 2 1.1962241884421381e+01 1.4024431897037340e+01 9.1820883967298883e+00 0 0 0
296 2 1.3611523331251883e+01 1.4020527162373785e+01 6.8426549631523317e+00 0 0 0
297 2 1.4436070077020164e+01 1.4018653288563947e+01 9.1708819456744557e+00 0 0 0
298 2 1.1961466139510048e+01 1.6041130739550876e+01 5.6559966919500182e+00 0 0 0
299 2 1.2786044638175220e+01 1.6039439673053614e+01 7.9824021290174727e+00 0 0 0
300 2 1.4434987609648271e+01 1.6036484472872807e+01 5.6431997417856419e+00 0 0 0
301 2 1.6084977848631755e+01 1.4015157022992877e+01 6.8349892628073734e+00 0 0 0
302 2 1.6909336476913566e+01 1.4013454483316785e+01 9.1649593670229716e+00 0 0 0
304 2 1.5259401777179152e+01 1.6035094836311885e+01 7.9716499532836016e+00 0 0 0
305 2 1.6908064224337856e+01 1.6032518194947802e+01 5.6364375865570047e+00 0 0 0
306 2 1.7732343047321464e+01 1.6031266002754730e+01 7.9668354347763408e+00 0 0 0
307 2 1.2352754004433970e+00 1.8081945982371266e+01 6.9453867864559884e+00 0 0 0
308 2 2.0605667610869665e+00 1.8080644278103868e+01 9.2597662855493361e+00 0 0 0
310 2 4.0972329443880451e-01 2.0095245080420305e+01 8.1223754004859305e+00 0 0 0
311 2 2.0596136284570905e+00 2.0092645186850252e+01 5.7489515092394061e+00 0 0 0
312 2 2.8845306038418030e+00 2.0090792375632127e+01 8.0602583944677964e+00 0 0 0
309 2 3.7109752969849721e+00 1.8076722353309076e+01 6.8961783747931342e+00 0 0 0
313 2 4.5361407754599634e+00 1.8074645850643808e+01 9.2125220687907152e+00 0 0 0
314 2 6.1862464810716018e+00 1.8069957600299961e+01 6.8536845682522785e+00 0 0 0
315 2 7.0111378836477742e+00 1.8067626427150536e+01 9.1728641774492310e+00 0 0 0
316 2 4.5341457661751496e+00 2.0086532829488831e+01 5.6916712954605675e+00 0 0 0
317 2 5.3588513114701106e+00 2.0084497084727161e+01 8.0061608092700585e+00 0 0 0
318 2 7.0077883475418492e+00 2.0080816244784867e+01 5.6451317801681009e+00 0 0 0
319 2 8.6606283264222199e+00 1.8063700773217189e+01 6.8201336754086999e+00 0 0 0
320 2 9.4851826414848439e+00 1.8061815060784532e+01 9.1423822638991794e+00 0 0 0
322 2 7.8320485481365258e+00 2.0079271814370696e+01 7.9637363731136759e+00 0 0 0
323 2 9.4802700340756090e+00 2.0076739590816931e+01 5.6106304566093428e+00 0 0 0
324 2 1.0304243922438149e+01 2.0075631755157563e+01 7.9329305623873649e+00 0 0 0
321 2 1.1134134881960454e+01 1.8058820394912132e+01 6.7955590413435516e+00 0 0 0
325 2 1.1958479501699220e+01 1.8057442924135771e+01 9.1205536190576080e+00 0 0 0
326 2 1.3607112842307254e+01 1.8055202810143907e+01 6.7789144510153054e+00 0 0 0
327 2 1.4431358672267237e+01 1.8054168590841666e+01 9.1063177444092727e+00 0 0 0
328 2 1.1952110792298704e+01 2.0073922548030836e+01 5.5866228308562826e+00 0 0 0
329 2 1.2776004935105229e+01 2.0073173167357066e+01 7.9119905253359555e+00 0 0 0
330 2 1.4423884520543361e+01 2.0071981772361589e+01 5.5712707264868904e+00 0 0 0
331 2 1.6079858330664450e+01 1.8052371426454137e+01 6.7692391611952978e+00 0 0 0
332 2 1.6904079208204539e+01 1.8051513761358567e+01 9.0988046702421741e+00 0 0 0
334 2 1.5247864004332271e+01 2.0071440851697982e+01 7.8991779420281878e+00 0 0 0
335 2 1.6896015943596797e+01 2.0070516454606199e+01 5.5631864127037494e+00 0 0 0
336 2 1.7720175902086226e+01 2.0070079185337981e+01 7.8933222724210150e+00 0 0 0
337 2 1.2335306521146103e+00 2.2105092023965707e+01 6.9221822498690964e+00 0 0 0
338 2 2.0578825790174475e+00 2.2103440086010309e+01 9.2279247807849032e+00 0 0 0
339 2 3.7063469803389788e+00 2.2099491033977436e+01 6.8486672370502122e+00 0 0 0
340 2 4.0812640456973914e-01 2.4115445715468670e+01 8.1030756708387575e+00 0 0 0
341 2 2.0540923315837647e+00 2.4113736454875522e+01 5.7067842813250129e+00 0 0 0
342 2 2.8779061617847690e+00 2.4110493421533054e+01 8.0067473013850456e+00 0 0 0
343 2 4.5304449462073935e+00 2.2097644010788386e+01 9.1583767364931301e+00 0 0 0
344 2 6.1778855266535579e+00 2.2094842013941154e+01 6.7894707180083964e+00 0 0 0
345 2 7.0013202769693414e+00 2.2093862129774813e+01 9.1048848751175004e+00 0 0 0
346 2 4.5234866735680193e+00 2.4107657106135367e+01 5.6214008747131592e+00 0 0 0
347 2 5.3457173094879531e+00 2.4107762148548936e+01 7.9303370189989870e+00 0 0 0
348 2 6.9895491376644028e+00 2.4107712004977113e+01 5.5614278824623851e+00 0 0 0
349 2 8.6478616013420897e+00 2.2092406170894542e+01 6.7466312957464840e+00 0 0 0
350 2 9.4710088176030194e+00 2.2091808378218676e+01 9.0668630903806537e+00 0 0 0
351 2 1.1117327123104214e+01 2.2091014073930712e+01 6.7172374324172512e+00 0 0 0
352 2 7.8113298029466156e+00 2.4107744625557782e+01 7.8773722943939255e+00 0 0 0
353 2 9.4549372767277315e+00 2.4107946110413351e+01 5.5209158280927264e+00 0 0 0
354 2 1.0276860368755870e+01 2.4108039084663400e+01 7.8422103969728774e+00 0 0 0
355 2 1.1940514994392979e+01 2.2090673504232434e+01 9.0412573317027753e+00 0 0 0
356 2 1.3587176498163071e+01 2.2090195978679368e+01 6.6982952707768648e+00 0 0 0
357 2 1.4410652381347347e+01 2.2089975412591464e+01 9.0252356350225593e+00 0 0 0
358 2 1.1921191142282701e+01 2.4108252993050179e+01 5.4947831606726290e+00 0 0 0
359 2 1.2743634842492986e+01 2.4108304128447635e+01 7.8198546791259655e+00 0 0 0
360 2 1.4389235258799866e+01 2.4108381471417339e+01 5.4788460901709657e+00 0 0 0
361 2 1.6058043910088987e+01 2.2089630510486241e+01 6.6875120362475071e+00 0 0 0
362 2 1.6881951250222958e+01 2.2089469370415305e+01 9.0168355311189448e+00 0 0 0
363 2 1.8530271448934602e+01 2.2089221812737964e+01 6.6835962304482788e+00 0 0 0
364 2 1.5212396108203631e+01 2.4108378384518758e+01 7.8066731105592799e+00 0 0 0
365 2 1.6859529355049762e+01 2.4108378549487643e+01 5.4705555794609779e+00 0 0 0
366 2 1.7683491023157586e+01 2.4108377415832862e+01 7.8006050751704032e+00 0 0 0
367 2 1.0308365924576273e+00 2.1998672059218722e+00 1.3835222888539899e+01 0 0 0
369 2 2.0720024471625651e+00 4.0311653885960688e+00 1.2772615981214884e+01 0 0 0
370 2 3.8017250120692403e-01 1.9603596511573247e+00 1.1582084789552193e+01 0 0 0
371 2 2.8671104393299478e+00 1.9641432699425045e+00 1.1644502111629556e+01 0 0 0
372 2 1.2293074319651554e+00 3.9830103163107791e+00 1.0459942372746395e+01 0 0 0
368 2 3.6743106131216434e+00 1.9234650996916469e+00 6.5750735081184786e-03 0 0 1
373 2 3.7067900375646383e+00 3.9722856873290602e+00 1.0471910552224458e+01 0 0 0
374 2 6.1712657202608829e+00 1.9360908665672920e+00 1.3983970293709787e+01 0 0 0
375 2 4.5277195861458441e+00 3.9528465421801968e+00 1.2810599138939478e+01 0 0 0
376 2 7.0029912859685890e+00 3.9514148023374194e+00 1.2803189011188122e+01 0 0 0